/*--------------------------------*- C++ -*----------------------------------*\
| =========                 |                                                 |
| \\      /  F ield         | OpenFOAM: The Open Source CFD Toolbox           |
|  \\    /   O peration     | Version:  v1806                                 |
|   \\  /    A nd           | Web:      www.OpenFOAM.com                      |
|    \\/     M anipulation  |                                                 |
\*---------------------------------------------------------------------------*/
FoamFile
{
    version     2.0;
    format      ascii;
    class       volScalarField;
    location    "221";
    object      p;
}
// * * * * * * * * * * * * * * * * * * * * * * * * * * * * * * * * * * * * * //

dimensions      [0 2 -2 0 0 0 0];


internalField   nonuniform List<scalar> 
10720
(
1776.74
1866.7
1908.55
1909.77
1864.98
1755.48
1593.17
1391.95
1159.87
910.432
652.71
395.053
144.228
-95.596
-320.257
-524.987
-708.864
-865.629
-995.61
-1092.62
-1156.88
-1183.92
-1180.25
-1147.35
-1097.68
-1052.65
-1011.06
-960.397
-900.524
-833.227
-758.698
-677.215
-589.011
-493.863
-391.192
-277.121
-147.323
26.0836
259.183
1643.32
1470.38
1228.76
924.358
566.812
164.982
-249.797
-625.225
-921.293
-1144.07
-1285.52
-1349.27
-1368.83
-1361.97
-1333.45
-1300.11
-1264.16
-1232.31
-1206.53
-1192.09
-1187.03
-1192.05
-1203.25
-1214.5
-1206.6
-1171.82
-1123.08
-1065.05
-998.011
-921.744
-837.208
-745.363
-646.78
-541.088
-427.505
-302.05
-159.246
26.9571
279.318
1707.15
1779.26
1820.79
1825.58
1786.4
1700.72
1573.95
1411.95
1219.95
1006.14
778.273
543.525
308.444
78.3776
-141.71
-347.055
-534.579
-699.193
-838.899
-948.79
-1027.64
-1072.28
-1085.68
-1070.57
-1038.06
-1005.12
-971.647
-928.007
-874.035
-811.644
-741.261
-663.243
-577.908
-485.101
-384.272
-271.609
-142.908
29.7899
256.583
1609.42
1481.46
1309.7
1090.48
829.284
532.193
216.835
-89.6398
-364.144
-596.794
-779.685
-911.816
-1003.33
-1061.87
-1093.48
-1109.79
-1115.71
-1116.78
-1116.87
-1120.58
-1127.97
-1140.14
-1154.78
-1166.73
-1161.39
-1132.24
-1088.99
-1036.01
-973.578
-901.517
-820.715
-732.096
-636.219
-532.756
-420.936
-296.836
-155.122
30.4083
276.52
1610.83
1672.08
1708.88
1716.4
1687.91
1620.41
1515.67
1376.64
1207.09
1013.41
802.609
581.346
356.25
133.236
-82.326
-285.562
-472.327
-638.158
-779.886
-893.581
-977.128
-1027.97
-1047.89
-1040.41
-1014.63
-984.577
-952.298
-910.671
-858.873
-798.558
-730.185
-654.01
-570.307
-478.898
-379.202
-267.432
-139.445
32.1563
252.789
1527.68
1418.8
1272.53
1083.59
857.032
595.916
311.37
23.4922
-246.677
-484.552
-681.766
-832.666
-939.21
-1009.57
-1052.34
-1076.43
-1087.98
-1092.41
-1094.24
-1097.51
-1103.76
-1114.05
-1126.54
-1136.56
-1132.49
-1107.44
-1067.77
-1017.79
-958.016
-888.39
-809.761
-723.049
-628.803
-526.724
-416.021
-292.811
-151.849
32.5533
272.441
1503.38
1556.32
1589.66
1598.78
1577.83
1523.94
1437.87
1321.31
1176.47
1008.01
821.294
621.645
414.909
206.592
1.99063
-193.919
-376.594
-541.566
-684.996
-803.084
-893.08
-952.645
-982.955
-986.98
-971.877
-949.176
-922.182
-885.612
-838.219
-781.563
-716.31
-642.769
-561.262
-471.664
-373.415
-262.806
-135.815
34.1116
248.498
1432.54
1341.26
1218.95
1061.1
872.477
653.703
412.767
165.816
-71.4072
-287.591
-474.542
-627.074
-745.631
-834.843
-900.163
-946.925
-979.604
-1002.5
-1019.72
-1034.99
-1050.39
-1067.02
-1083.6
-1096.19
-1095.69
-1075.77
-1040.69
-994.668
-938.466
-872.087
-796.328
-712.1
-619.962
-519.652
-410.384
-288.347
-148.448
34.2228
267.41
1396.39
1442.75
1473.05
1482.9
1467.45
1424.04
1352.65
1254.12
1129.47
982.063
815.9
635.187
445.019
250.434
56.511
-131.755
-309.584
-472.398
-615.973
-736.519
-830.866
-896.838
-934.64
-946.837
-939.277
-921.642
-897.911
-864.464
-819.984
-765.907
-703.023
-631.636
-552.047
-464.123
-367.289
-257.882
-132.031
35.9041
243.662
1334.8
1256.21
1150.79
1014.33
851.582
661.689
450.352
230.747
15.3408
-186.847
-368.215
-523.316
-650.691
-751.846
-829.734
-887.685
-929.897
-960.586
-983.804
-1003.08
-1020.73
-1037.88
-1053.79
-1065.25
-1065.27
-1048.05
-1016.05
-972.949
-919.576
-855.926
-782.697
-700.756
-610.636
-512.084
-404.297
-283.53
-144.891
35.6552
261.517
1293.78
1334.8
1362.39
1372.38
1360.75
1325.16
1265.23
1181.43
1074.03
945.495
798.731
636.905
464.246
285.132
104.141
-73.9706
-244.44
-402.722
-544.425
-665.63
-762.97
-834.131
-878.728
-898.883
-899.316
-887.836
-868.58
-839.297
-798.712
-748.054
-688.183
-619.43
-542.102
-456.089
-360.834
-252.768
-128.219
37.3662
238.217
1239.69
1171.34
1079.65
960.778
819.475
654.065
468.829
275.051
82.9893
-100.402
-268.481
-416.239
-541.948
-645.879
-729.687
-795.775
-847.328
-887.556
-919.572
-946.291
-969.885
-991.448
-1010.47
-1024.31
-1027.42
-1014.73
-987.321
-948.279
-898.558
-838.236
-767.975
-688.629
-600.742
-504.096
-397.911
-278.535
-141.335
36.6807
254.787
1197.48
1234.04
1259.18
1268.91
1259.94
1230.25
1179.32
1107.41
1014.33
901.876
772.153
627.445
471.185
307.037
139.025
-28.4347
-190.803
-343.598
-482.378
-603.151
-702.399
-777.645
-828.045
-855.041
-862.395
-856.382
-841.1
-815.43
-778.272
-730.659
-673.51
-607.195
-532.016
-447.87
-354.204
-247.542
-124.423
38.476
232.255
1149.55
1089.42
1008.71
903.875
779.588
633.701
469.481
296.792
124.263
-42.7711
-198.719
-339.064
-462.173
-567.653
-656.067
-728.723
-787.664
-835.093
-873.493
-905.326
-932.625
-956.487
-976.688
-991.144
-995.593
-985.592
-961.328
-925.27
-878.429
-820.916
-753.297
-676.36
-590.618
-495.862
-391.309
-273.413
-137.811
37.2734
247.362
1107.95
1140.73
1163.62
1172.83
1165.73
1140.54
1096.7
1034.39
953.208
854.482
739.725
610.554
469.678
320.083
165.217
9.0234
-144.273
-290.372
-424.918
-543.928
-643.78
-721.84
-776.865
-809.735
-823.383
-822.756
-811.67
-789.83
-756.338
-712.03
-657.84
-594.174
-521.328
-439.205
-347.272
-242.162
-120.649
39.2276
225.852
1065.19
1011.86
940.225
847.015
736.77
607.121
460.639
306.11
150.96
-0.62289
-143.924
-274.965
-392.367
-495.521
-584.419
-659.752
-722.785
-775.056
-818.45
-854.91
-886.117
-913.024
-935.502
-951.831
-958.652
-952.177
-931.884
-899.589
-856.265
-802.062
-737.472
-663.24
-579.87
-487.181
-384.415
-268.148
-134.331
37.4487
239.392
1025.13
1054.65
1075.47
1084.04
1078.25
1056.5
1018.31
963.83
892.537
805.451
703.68
588.314
461.471
325.543
183.393
38.4787
-105.365
-244.122
-373.617
-489.934
-589.407
-669.272
-727.972
-765.825
-785.029
-789.403
-782.351
-764.166
-734.196
-693.112
-641.833
-580.803
-510.307
-430.256
-340.125
-236.682
-116.938
39.5951
219.022
986.781
939.132
875.092
791.596
693.044
576.945
445.381
306.248
166.113
28.282
-103.265
-225.052
-336.034
-435.61
-523.508
-600.028
-665.862
-721.909
-769.46
-809.881
-844.458
-873.959
-898.316
-916.161
-924.813
-921.054
-903.965
-874.824
-834.543
-783.307
-721.533
-649.891
-568.856
-478.25
-377.331
-262.809
-130.948
37.1868
230.964
948.692
975.361
994.29
1002.15
997.275
978.221
944.551
896.494
833.457
756.254
665.713
562.546
448.407
325.152
195.125
61.3133
-72.9079
-203.853
-327.596
-440.335
-538.461
-619.117
-680.475
-722.381
-746.391
-755.389
-752.277
-737.71
-711.265
-673.464
-625.176
-566.869
-498.82
-420.94
-332.726
-231.089
-113.301
39.5704
211.778
914.126
871.314
813.724
738.473
649.798
545.194
426.351
300.474
173.435
47.9058
-72.7217
-185.371
-289.324
-384.116
-469.374
-545.193
-611.901
-669.956
-720.156
-763.416
-800.65
-832.416
-858.634
-878.152
-888.805
-887.876
-874.175
-848.455
-811.486
-763.458
-704.712
-635.844
-557.3
-468.919
-369.988
-257.371
-127.668
36.4822
222.127
878.189
902.352
919.564
926.683
922.439
905.515
875.534
832.787
776.671
707.877
627.04
534.598
431.832
320.179
201.527
78.3844
-46.3048
-169.226
-286.739
-395.247
-491.237
-571.811
-634.943
-680.062
-708.15
-721.338
-721.973
-710.895
-687.877
-653.324
-608.029
-552.474
-486.925
-411.292
-325.092
-225.397
-109.753
39.1569
204.137
846.91
808.249
756.195
688.023
607.789
513.017
405.118
290.695
175.072
60.4488
-50.225
-154.237
-251.147
-340.651
-422.382
-496.386
-562.794
-621.741
-673.654
-719.041
-758.458
-792.219
-820.177
-841.331
-853.858
-855.451
-844.778
-822.195
-788.32
-743.342
-687.535
-621.412
-545.381
-459.284
-362.432
-251.862
-124.516
35.3388
212.915
813.157
835.097
850.75
857.149
853.333
838.108
811.165
772.847
722.579
660.97
588.527
505.496
412.878
311.762
203.651
90.6361
-24.7693
-139.627
-250.624
-354.394
-447.571
-527.272
-591.332
-638.845
-670.295
-687.199
-691.355
-683.634
-663.958
-632.629
-590.348
-537.588
-474.604
-401.303
-317.224
-219.616
-106.306
38.3584
196.131
784.755
749.702
702.441
640.403
567.453
481.182
382.779
278.329
172.717
67.79
-33.8652
-129.831
-219.864
-303.823
-381.43
-452.736
-517.786
-576.532
-629.122
-675.755
-716.674
-751.967
-781.406
-804.061
-818.361
-822.33
-814.574
-795.107
-764.364
-722.495
-669.704
-606.417
-532.997
-449.292
-354.646
-246.283
-121.499
33.7715
203.353
753.14
773.105
787.336
793.044
789.515
775.674
751.261
716.669
671.381
615.94
550.772
475.996
392.4
300.803
202.382
98.8589
-7.64242
-114.553
-218.899
-317.58
-407.415
-485.571
-549.812
-598.964
-633.091
-653.211
-660.617
-656.082
-639.624
-611.46
-572.182
-522.241
-461.874
-390.983
-309.13
-213.755
-102.969
37.1893
187.789
727.28
695.378
652.307
595.624
529.024
450.156
360.049
264.348
167.553
71.2473
-22.2711
-110.813
-194.293
-272.721
-345.909
-413.976
-476.94
-534.653
-587.101
-634.261
-676.122
-712.564
-743.252
-767.282
-783.236
-789.388
-784.321
-767.796
-740.062
-701.222
-651.414
-590.974
-520.212
-438.977
-346.649
-240.648
-118.63
31.7917
193.479
697.715
715.917
728.853
733.904
730.567
717.869
695.587
664.166
623.147
573.028
514.186
446.655
371.066
288.037
198.462
103.752
5.69741
-93.4942
-191.18
-284.539
-370.611
-446.658
-510.416
-560.509
-596.669
-619.493
-629.845
-628.298
-614.919
-589.847
-553.553
-506.446
-448.745
-380.34
-300.821
-207.825
-99.7571
35.6666
179.148
674.102
644.982
605.594
553.629
492.597
420.235
337.438
249.446
160.453
71.8273
-14.3488
-96.0841
-173.407
-246.445
-315.104
-379.579
-439.918
-495.944
-547.549
-594.566
-636.795
-673.948
-705.578
-730.778
-748.212
-756.348
-753.775
-740.058
-715.263
-679.421
-632.6
-575.045
-507.008
-428.335
-338.443
-234.967
-115.915
29.4262
183.329
646.49
663.105
674.867
679.304
676.1
664.354
643.888
615.194
577.859
532.359
479.043
417.888
349.406
274.054
192.521
105.953
15.8362
-75.9446
-167.075
-255.015
-337.023
-410.498
-473.197
-523.603
-561.19
-586.209
-599.168
-600.39
-589.927
-567.847
-534.499
-490.231
-435.233
-369.387
-292.305
-201.837
-96.674
33.8065
170.249
624.878
598.216
562.095
514.312
458.202
391.592
315.27
234.124
152.066
70.3133
-9.23954
-84.7552
-156.35
-224.235
-288.391
-349.104
-406.464
-460.325
-510.54
-556.855
-598.946
-636.393
-668.659
-694.811
-713.548
-723.464
-723.174
-712.094
-690.12
-657.203
-613.336
-558.677
-493.412
-417.381
-330.042
-229.25
-113.364
26.6948
172.948
599.1
614.286
624.987
628.863
625.749
614.803
595.906
569.577
535.446
493.981
445.509
389.975
327.805
259.338
185.097
106.005
23.29
-61.4503
-146.207
-228.712
-306.463
-377.011
-438.164
-488.327
-526.781
-553.504
-568.709
-572.454
-564.727
-545.521
-515.063
-473.625
-421.359
-358.137
-283.596
-195.802
-93.7289
31.6351
161.134
579.287
554.813
521.596
477.543
425.81
364.32
293.768
218.732
142.872
67.2878
-6.28155
-76.1241
-142.413
-205.42
-265.201
-322.102
-376.285
-427.641
-476.039
-521.182
-562.681
-600.027
-632.608
-659.463
-679.29
-690.771
-692.55
-683.93
-664.658
-634.588
-593.641
-541.884
-479.436
-406.128
-321.457
-223.506
-110.98
23.6295
162.38
555.23
569.13
578.866
582.23
579.173
568.918
551.39
527.125
495.803
457.882
413.675
363.115
306.561
244.264
176.616
104.361
28.5072
-49.5997
-128.222
-205.357
-278.742
-346.094
-405.304
-454.738
-493.549
-521.508
-538.587
-544.593
-539.404
-522.936
-495.294
-456.662
-407.148
-346.61
-274.709
-189.731
-90.923
29.1791
151.844
537.032
514.517
483.898
443.189
395.367
338.461
273.082
203.522
133.23
63.1983
-4.95106
-69.6168
-131.009
-189.444
-245.023
-298.161
-349.074
-397.711
-443.974
-487.575
-528.093
-564.976
-597.566
-624.869
-645.572
-658.393
-662.023
-655.674
-638.961
-611.644
-573.565
-524.702
-465.105
-394.592
-312.702
-217.746
-108.762
20.2616
151.667
514.589
527.326
536.187
539.085
536.066
526.421
510.096
487.65
458.808
424.019
383.586
337.438
285.887
229.118
167.425
101.408
31.888
-40.0022
-112.774
-184.667
-253.654
-317.625
-374.572
-422.868
-461.584
-490.345
-508.922
-516.913
-514.05
-500.164
-475.246
-439.384
-392.63
-334.827
-265.661
-183.633
-88.2582
26.4708
142.432
497.844
477.089
448.808
411.109
366.804
314.018
253.301
188.681
123.407
58.3987
-4.83004
-64.7703
-121.658
-175.829
-227.423
-276.901
-324.537
-370.338
-414.25
-456.023
-495.243
-531.342
-563.643
-591.136
-612.484
-626.419
-631.681
-627.407
-613.1
-588.429
-553.153
-507.165
-450.445
-382.794
-303.791
-211.979
-106.711
16.6299
140.866
476.911
488.596
496.665
499.141
496.156
487.048
471.793
450.966
424.329
392.32
355.241
313.022
265.94
214.133
157.82
97.4833
33.7901
-32.3095
-99.5443
-166.378
-230.998
-291.473
-345.917
-392.734
-430.955
-460.118
-479.826
-489.518
-488.755
-477.281
-454.98
-421.835
-377.839
-322.814
-256.468
-177.52
-85.7326
23.5445
132.947
461.478
442.31
416.144
381.165
340.037
290.977
234.479
174.333
113.609
53.1607
-5.5883
-61.2123
-113.955
-164.164
-212.008
-257.975
-302.39
-345.314
-386.746
-426.485
-464.152
-499.196
-530.941
-558.37
-580.13
-594.952
-601.624
-599.221
-587.157
-565.01
-532.459
-489.315
-435.487
-370.756
-294.741
-206.212
-104.817
12.7724
130.026
441.96
452.697
460.047
462.142
459.188
450.562
436.268
416.891
392.225
362.699
328.617
289.91
246.832
199.486
148.031
92.8593
34.5124
-26.2183
-88.2446
-150.229
-210.567
-267.499
-319.267
-364.33
-401.715
-430.915
-451.407
-462.509
-463.614
-454.371
-434.562
-404.069
-362.813
-310.598
-247.152
-171.401
-83.3412
20.4374
123.438
427.717
409.987
385.736
353.226
314.977
269.302
216.642
160.568
103.984
47.6898
-6.97232
-58.643
-107.568
-154.105
-198.436
-241.07
-282.362
-322.426
-361.317
-398.892
-434.818
-468.577
-499.524
-526.651
-548.599
-564.084
-571.943
-571.206
-561.213
-541.459
-511.543
-471.199
-420.265
-358.504
-285.571
-200.453
-103.075
8.73216
119.201
409.528
419.401
426.098
427.854
424.932
416.745
403.323
385.255
362.36
335.065
303.669
268.112
228.627
185.295
138.232
87.7546
34.3047
-21.4567
-78.6029
-135.975
-192.156
-245.55
-294.53
-337.629
-373.896
-402.809
-423.762
-435.986
-438.719
-431.516
-414.063
-386.14
-347.597
-298.212
-237.735
-165.286
-81.0751
17.1905
113.961
396.363
379.938
357.428
327.167
291.542
248.95
199.794
147.437
94.6339
42.1404
-8.77689
-56.8239
-102.237
-145.374
-186.426
-225.91
-264.209
-301.475
-337.817
-373.155
-407.205
-439.505
-469.445
-496.056
-517.974
-533.905
-542.733
-543.457
-535.355
-517.85
-490.469
-452.868
-404.821
-346.067
-276.298
-194.707
-101.469
4.55513
108.444
379.418
388.506
394.61
396.066
393.178
385.396
372.773
355.89
334.599
309.317
280.341
247.619
211.369
171.657
128.566
82.3577
33.3881
-17.7886
-70.3851
-123.398
-175.574
-225.477
-271.61
-312.589
-347.508
-375.857
-396.974
-410.04
-414.162
-408.803
-393.557
-368.109
-332.237
-285.692
-228.239
-159.184
-78.9245
13.8466
104.572
367.235
351.997
331.074
302.869
269.643
229.873
183.927
134.981
85.6446
36.6378
-10.8418
-55.5569
-97.7347
-137.724
-175.722
-212.248
-247.698
-282.264
-316.1
-349.173
-381.264
-411.97
-440.738
-466.639
-488.324
-504.496
-514.082
-516.061
-509.667
-494.261
-469.303
-434.377
-389.196
-333.476
-266.942
-188.98
-99.9863
0.285624
97.8131
351.453
359.829
365.396
366.588
363.739
356.333
344.444
328.645
308.812
285.356
258.568
228.408
195.08
158.64
119.147
76.8179
31.9443
-15.0133
-63.3805
-112.291
-160.637
-207.13
-250.403
-289.162
-322.552
-350.096
-371.114
-384.756
-390.033
-386.317
-373.12
-350.041
-316.785
-273.074
-218.689
-153.101
-76.8763
10.4454
95.3196
340.167
326.014
306.54
280.222
249.195
212.015
169.023
123.214
77.0722
31.2735
-13.0381
-54.682
-93.8762
-130.957
-166.117
-199.875
-232.636
-264.619
-296.014
-326.837
-356.928
-385.951
-413.414
-438.441
-459.711
-475.93
-486.07
-489.106
-484.237
-470.773
-448.116
-415.787
-373.438
-320.767
-257.525
-183.275
-98.6064
-4.02825
87.3612
325.477
333.204
338.285
339.244
336.44
329.388
318.178
303.374
284.875
263.081
238.281
210.441
179.76
146.285
110.056
71.2567
30.124
-12.9514
-57.3966
-102.459
-147.168
-190.361
-230.799
-267.28
-299.007
-325.552
-346.245
-360.214
-366.42
-364.145
-352.831
-332.002
-301.296
-260.402
-209.111
-147.047
-74.9143
7.0321
86.2601
315.009
301.85
283.706
259.122
230.116
195.323
155.055
112.146
68.95
26.1151
-15.2705
-54.0782
-90.5151
-124.903
-157.431
-188.607
-218.84
-248.369
-277.413
-306.032
-334.12
-361.406
-387.465
-411.482
-432.177
-448.27
-458.773
-462.675
-459.15
-447.468
-426.982
-397.16
-357.598
-307.975
-248.068
-177.595
-97.3087
-8.33911
77.1437
301.342
308.478
313.12
313.873
311.12
304.406
293.828
279.943
262.669
242.395
219.407
193.679
165.4
134.615
101.354
65.7683
28.0552
-11.4538
-52.2705
-93.7395
-135.009
-175.034
-212.691
-246.871
-276.844
-302.235
-322.406
-336.478
-343.397
-342.367
-332.767
-314.063
-285.826
-247.715
-199.531
-141.026
-73.0222
3.64931
77.4436
291.626
279.377
262.454
239.47
212.33
179.742
141.995
101.769
61.3022
21.2132
-17.4623
-53.646
-87.5304
-119.422
-149.506
-178.282
-206.15
-233.365
-260.163
-286.648
-312.761
-338.291
-362.878
-385.776
-405.758
-421.569
-432.259
-436.844
-434.485
-424.425
-405.976
-378.56
-341.73
-295.141
-238.591
-171.942
-96.0703
-12.6001
67.2122
278.918
285.513
289.76
290.334
287.638
281.245
271.258
258.226
242.081
223.203
201.872
178.07
151.98
123.643
93.082
60.4268
25.8411
-10.3946
-47.858
-85.9816
-124.012
-161.016
-195.972
-227.863
-256.027
-280.147
-299.633
-313.608
-321.036
-321.06
-313.009
-296.294
-270.435
-235.062
-189.975
-135.048
-71.1792
0.339503
68.9189
269.891
258.478
242.68
221.174
195.758
165.214
129.808
92.0747
54.1423
16.6035
-19.5549
-53.3045
-84.8248
-114.406
-142.226
-168.767
-194.429
-219.468
-244.139
-268.573
-292.762
-316.541
-339.62
-361.322
-380.477
-395.87
-406.589
-411.689
-410.324
-401.723
-385.174
-360.055
-325.886
-282.303
-229.121
-166.315
-94.8676
-16.765
57.6169
258.083
264.185
268.072
268.493
265.86
259.773
250.343
238.105
223.005
205.413
185.603
163.564
139.472
113.368
85.2682
55.287
23.5615
-9.66698
-44.0366
-79.0521
-114.044
-148.179
-180.532
-210.173
-236.506
-259.277
-277.943
-291.654
-299.404
-300.298
-293.629
-278.765
-255.182
-222.484
-180.475
-129.115
-69.3679
-2.86207
60.7305
249.688
239.044
224.286
204.148
180.332
151.685
118.457
83.0455
47.4734
12.309
-21.5071
-52.9934
-82.3174
-109.755
-135.477
-159.945
-183.55
-206.554
-229.219
-251.704
-274.031
-296.09
-317.652
-338.105
-356.344
-371.204
-381.811
-387.27
-386.739
-379.442
-364.649
-341.714
-310.124
-269.502
-219.678
-160.716
-93.674
-20.7937
48.4037
238.724
244.375
247.936
248.226
245.663
239.87
230.966
219.47
205.341
188.938
170.528
150.105
127.843
103.779
77.9291
50.3913
21.2843
-9.18488
-40.7007
-72.8318
-104.986
-136.41
-166.273
-193.722
-218.23
-239.599
-257.344
-270.649
-278.555
-280.149
-274.698
-261.544
-240.129
-210.03
-171.056
-123.237
-67.5716
-5.91494
52.9176
230.91
220.978
207.18
188.313
165.983
139.102
107.905
74.6606
41.2925
8.34445
-23.2879
-52.6667
-79.9495
-105.395
-129.169
-151.715
-173.412
-194.519
-215.305
-235.944
-256.489
-276.878
-296.929
-316.103
-333.362
-347.595
-357.968
-363.645
-363.795
-357.65
-344.474
-323.603
-294.501
-256.782
-210.283
-155.146
-92.4676
-24.6397
39.6154
220.739
225.978
229.244
229.422
226.935
221.426
213.02
202.22
188.995
173.693
156.575
137.641
117.057
94.8629
71.0701
45.7694
19.0609
-8.87516
-37.7628
-67.221
-96.726
-125.603
-153.097
-178.434
-201.146
-221.088
-237.839
-250.621
-258.537
-260.674
-256.285
-244.699
-225.332
-197.747
-161.747
-117.418
-65.7654
-8.78828
45.5171
213.46
204.185
191.278
173.592
152.647
127.413
98.1137
66.8977
35.5913
4.71574
-24.8751
-52.2891
-77.6722
-101.269
-123.235
-143.998
-163.922
-183.265
-202.294
-221.196
-240.05
-258.828
-277.397
-295.284
-311.519
-325.052
-335.09
-340.862
-341.555
-336.417
-324.718
-305.788
-279.074
-244.183
-200.962
-149.604
-91.2185
-28.2694
31.2889
204.033
208.894
211.893
211.979
209.572
204.338
196.404
186.258
173.878
159.602
143.678
126.117
107.077
86.5971
64.6913
41.4391
16.9295
-8.67912
-35.1467
-62.134
-89.1753
-115.663
-140.915
-164.229
-185.191
-203.707
-219.413
-231.585
-239.386
-241.922
-238.449
-228.29
-210.849
-185.678
-152.576
-111.663
-63.9377
-11.4495
38.5606
197.248
188.58
176.499
159.915
140.261
116.568
89.0453
59.7306
30.3569
1.42401
-26.2565
-51.8344
-75.4451
-97.3228
-117.613
-136.723
-155.005
-172.708
-190.102
-207.379
-224.635
-241.874
-259.004
-275.614
-290.801
-303.579
-313.201
-318.958
-320.07
-315.804
-305.447
-288.33
-263.897
-231.747
-191.737
-144.09
-89.9085
-31.6466
23.4549
188.519
193.033
195.791
195.801
193.477
188.509
181.025
171.495
159.907
146.584
131.771
115.477
97.8599
78.958
58.7837
37.4122
14.9198
-8.55227
-32.7897
-57.4929
-82.2467
-106.502
-129.643
-151.032
-170.306
-187.413
-202.052
-213.548
-221.13
-223.939
-221.245
-212.376
-196.735
-173.868
-143.57
-105.982
-62.0709
-13.8751
32.0713
182.189
174.085
162.773
147.216
128.768
106.517
80.6624
53.1316
25.5728
-1.53712
-27.4249
-51.2848
-73.2424
-93.5184
-112.253
-129.833
-146.594
-162.781
-178.655
-194.415
-210.171
-225.948
-241.696
-257.053
-271.185
-283.171
-292.315
-297.966
-299.383
-295.866
-286.72
-271.291
-249.022
-219.517
-182.629
-138.605
-88.5146
-34.7425
16.14
174.116
178.311
180.85
180.798
178.563
173.852
166.797
157.848
147.002
134.571
120.788
105.67
89.3662
71.9178
53.3357
33.6905
13.052
-8.45543
-30.6399
-53.2353
-75.8683
-98.0443
-119.205
-138.773
-156.432
-172.167
-185.73
-196.506
-203.787
-206.76
-204.72
-197.01
-183.04
-162.358
-134.755
-100.38
-60.1521
-16.0439
26.0669
168.206
160.625
150.028
135.431
118.114
97.2148
72.9267
47.0731
21.221
-4.17574
-28.3815
-50.6314
-71.0447
-89.8293
-107.118
-123.28
-138.634
-153.417
-167.886
-182.236
-196.588
-210.988
-225.414
-239.555
-252.642
-263.818
-272.437
-277.907
-279.534
-276.65
-268.592
-254.724
-234.5
-207.527
-173.662
-133.151
-87.0176
-37.5307
9.36535
160.746
164.65
166.991
166.891
164.746
160.285
153.638
145.24
135.092
123.494
110.671
96.6426
81.5545
65.4461
48.3308
30.2739
11.3392
-8.36157
-28.6574
-49.3076
-69.9785
-90.2218
-109.532
-127.387
-143.511
-157.923
-170.422
-180.45
-187.367
-190.412
-188.912
-182.235
-169.808
-151.185
-126.156
-94.8648
-58.1722
-17.9394
20.5613
155.226
148.132
138.202
124.503
108.244
88.6158
65.8004
41.5276
17.2816
-6.50365
-29.1285
-49.8689
-68.8377
-86.2322
-102.178
-117.026
-131.08
-144.567
-157.736
-170.779
-183.825
-196.934
-210.108
-223.078
-235.14
-245.5
-253.565
-258.797
-260.55
-258.197
-251.109
-238.68
-220.377
-195.816
-164.855
-127.731
-85.4052
-39.9929
3.14467
148.342
151.976
154.139
154.001
151.949
147.731
141.474
133.597
124.106
113.289
101.361
88.3463
74.384
59.5137
43.75
27.1558
9.78787
-8.25211
-26.8084
-45.6662
-64.5222
-82.9729
-100.559
-116.81
-131.486
-144.633
-156.092
-165.365
-171.872
-174.912
-173.852
-168.091
-157.08
-140.386
-117.797
-89.4468
-56.1227
-19.5507
15.5592
143.183
136.541
127.233
114.377
99.1114
80.677
59.2493
36.465
13.7332
-8.53325
-29.6702
-48.9945
-66.6112
-82.7093
-97.4073
-111.039
-123.892
-136.183
-148.153
-159.99
-171.823
-183.727
-195.722
-207.576
-218.646
-228.198
-235.689
-240.639
-242.449
-240.537
-234.313
-223.201
-206.694
-184.418
-156.229
-122.351
-83.6649
-42.1137
-2.51614
136.836
140.224
142.224
142.059
140.103
136.119
130.235
122.852
113.98
103.894
92.803
80.7316
67.8132
54.0887
39.5731
24.3259
8.40068
-8.11066
-25.0665
-42.2721
-59.4544
-76.2459
-92.2324
-106.987
-120.304
-132.251
-142.708
-151.23
-157.296
-160.27
-159.562
-154.609
-144.89
-129.99
-109.7
-84.1338
-54.0025
-20.8738
11.0607
132.013
125.792
117.067
105
90.668
73.3574
53.2377
31.8585
10.5542
-10.2802
-30.0173
-48.0111
-64.3633
-79.2521
-92.7915
-105.296
-117.039
-128.23
-139.095
-149.82
-160.534
-171.318
-182.206
-193.004
-203.122
-211.884
-218.798
-223.433
-225.244
-223.694
-218.234
-208.325
-193.487
-173.362
-147.804
-117.014
-81.7913
-43.8845
-7.61377
126.17
129.33
131.184
131
129.139
125.383
119.856
112.941
104.653
95.2539
84.9452
73.7518
61.8028
49.139
35.777
21.7722
7.17523
-7.9288
-23.4114
-39.0961
-54.7349
-69.9946
-84.4998
-97.8643
-109.914
-120.731
-130.23
-138.018
-143.627
-146.488
-146.056
-141.811
-133.264
-120.024
-101.884
-78.9361
-51.8115
-21.9071
7.05978
121.657
115.83
107.649
96.3239
82.8695
66.6174
47.7313
27.679
7.72213
-11.7622
-30.1807
-46.9255
-62.093
-75.8534
-88.316
-99.7773
-110.498
-120.675
-130.524
-140.227
-149.908
-159.655
-169.514
-179.317
-188.528
-196.528
-202.87
-207.173
-208.941
-207.683
-202.896
-194.081
-180.787
-162.674
-139.597
-111.729
-79.7789
-45.3031
-12.1528
116.286
119.235
120.958
120.762
118.998
115.462
110.276
103.805
96.067
87.3139
77.737
67.363
56.3154
44.6348
32.3389
19.4804
6.10774
-7.70101
-21.8281
-36.1134
-50.331
-64.1779
-77.3153
-89.3944
-100.266
-110.028
-118.619
-125.699
-130.847
-133.56
-133.341
-129.712
-122.224
-110.509
-94.3654
-73.8641
-49.552
-22.6558
3.5451
112.062
106.602
98.9307
88.3023
75.6739
60.4198
42.6982
23.898
5.21376
-12.9965
-30.173
-45.7437
-59.8025
-72.5099
-83.9716
-94.4684
-104.246
-113.49
-122.408
-131.172
-139.905
-148.696
-157.6
-166.473
-174.827
-182.098
-187.883
-191.843
-193.535
-192.512
-188.317
-180.492
-168.618
-152.378
-131.626
-106.502
-77.6307
-46.3692
-16.1423
107.13
109.887
111.489
111.289
109.621
106.297
101.437
95.3873
88.1697
80.0238
71.1315
61.5219
51.3128
40.5447
29.2349
17.4354
5.19096
-7.42538
-20.306
-33.3037
-46.2146
-58.762
-70.6396
-81.5334
-91.316
-100.096
-107.837
-114.24
-118.934
-121.475
-121.415
-118.321
-111.783
-101.461
-87.1605
-68.9288
-47.2319
-23.1285
0.500795
103.176
98.0592
90.8653
80.8918
69.0414
54.7281
38.1066
20.4896
3.00726
-14.0013
-30.0073
-44.4747
-57.4948
-69.2206
-79.7527
-89.3573
-98.2656
-106.654
-114.719
-122.622
-130.487
-138.4
-146.421
-154.429
-161.981
-168.561
-173.808
-177.426
-179.017
-178.181
-174.506
-167.574
-157.001
-142.492
-123.903
-101.345
-75.3516
-47.0924
-19.5976
98.6541
101.232
102.726
102.527
100.955
97.836
93.2867
87.637
80.9105
73.3351
65.0845
56.1885
46.76
36.8379
26.4413
15.6196
4.41566
-7.10325
-18.8375
-30.6523
-42.3624
-53.7161
-64.436
-74.24
-83.0211
-90.8946
-97.842
-103.606
-107.86
-110.214
-110.27
-107.639
-101.95
-92.8928
-80.2807
-64.1403
-44.8605
-23.3393
-2.09447
94.9509
90.1548
83.4088
74.0517
62.9343
49.5093
33.9265
17.4276
1.08044
-14.7942
-29.698
-43.1295
-55.1769
-65.9868
-75.656
-84.4356
-92.544
-100.148
-107.432
-114.55
-121.619
-128.727
-135.938
-143.146
-149.949
-155.88
-160.616
-163.898
-165.373
-164.684
-161.464
-155.334
-145.948
-133.031
-116.444
-96.268
-72.9505
-47.4835
-22.5371
90.8118
93.2245
94.6204
94.4266
92.9491
90.0279
85.7755
80.5051
74.2422
67.2036
59.5544
51.3247
42.6224
33.4862
23.9349
14.0164
3.77123
-6.73723
-17.4177
-28.1468
-38.7546
-49.0137
-58.6726
-67.4784
-75.3415
-82.3809
-88.595
-93.7617
-97.5941
-99.7556
-99.8917
-97.6587
-92.7253
-84.8094
-73.735
-59.5094
-42.4497
-23.3049
-4.2645
87.3421
82.8462
76.5207
67.7434
57.3171
44.7301
30.1287
14.6865
-0.58887
-15.3936
-29.2594
-41.7179
-52.8552
-62.8115
-71.6801
-79.6981
-87.0709
-93.9557
-100.526
-106.928
-113.272
-119.646
-126.113
-132.583
-138.693
-144.019
-148.275
-151.232
-152.582
-152.009
-149.185
-143.775
-135.466
-124.006
-109.26
-91.2812
-70.4385
-47.5587
-24.9852
83.5594
85.8192
87.1259
86.9416
85.5574
82.8263
78.8568
73.946
68.1207
61.5868
54.501
46.8937
38.8676
30.4608
21.6926
12.6084
3.24692
-6.33192
-16.0442
-25.7768
-35.3753
-44.6322
-53.3211
-61.2144
-68.2393
-74.516
-80.0557
-84.6679
-88.1036
-90.0711
-90.2604
-88.3692
-84.1044
-77.2126
-67.5299
-55.0461
-40.0134
-23.0455
-6.03636
80.3075
76.0931
70.162
61.931
52.1561
40.3602
26.6857
12.2419
-2.02154
-15.8176
-28.706
-40.2517
-50.5375
-59.6987
-67.8252
-75.1401
-81.8369
-88.0638
-93.9833
-99.733
-105.419
-111.123
-116.911
-122.706
-128.178
-132.943
-136.75
-139.398
-140.62
-140.138
-137.661
-132.894
-125.557
-115.422
-102.359
-86.3968
-67.8308
-47.3389
-26.9681
76.8564
78.9745
80.2003
80.0285
78.7358
76.1873
72.4873
67.917
62.5045
56.4451
49.8871
42.8611
35.4647
27.7351
19.6918
11.3782
2.83161
-5.8924
-14.7161
-23.5355
-32.21
-40.5509
-48.3546
-55.4172
-61.6795
-67.2618
-72.1853
-76.2872
-79.3523
-81.1303
-81.3518
-79.7531
-76.0777
-70.1001
-61.6687
-50.7596
-37.5667
-22.5836
-7.44064
73.808
69.857
64.2968
56.5801
47.4194
36.3701
23.5713
10.0703
-3.23785
-16.0829
-28.0524
-38.7417
-48.2325
-56.6534
-64.0922
-70.7588
-76.8352
-82.4609
-87.7879
-92.9449
-98.0321
-103.129
-108.299
-113.477
-118.365
-122.615
-126.006
-128.365
-129.459
-129.047
-126.873
-122.679
-116.217
-107.282
-95.7495
-81.6264
-65.144
-46.8466
-28.5152
70.6649
72.6516
73.8037
73.6469
72.4435
70.0701
66.6265
62.3785
57.3554
51.7417
45.6781
39.1948
32.3846
25.2835
17.9112
10.3094
2.51321
-5.42503
-13.4334
-21.4169
-29.2466
-36.7523
-43.75
-50.0581
-55.6292
-60.5816
-64.9451
-68.5809
-71.3035
-72.9001
-73.1378
-71.7893
-68.6311
-63.4651
-56.1523
-46.6575
-35.1252
-21.9435
-8.50838
67.8065
64.1025
58.8907
51.6585
43.0768
32.7321
20.7603
8.15007
-4.25737
-16.2068
-27.3126
-37.1992
-45.9474
-53.6801
-60.4825
-66.5521
-72.0599
-77.1367
-81.9248
-86.5447
-91.0901
-95.6369
-100.247
-104.863
-109.217
-112.997
-116.006
-118.096
-119.068
-118.71
-116.801
-113.117
-107.439
-99.5847
-89.4357
-76.9818
-62.3963
-46.1075
-29.6593
64.9493
66.8141
67.8989
67.7592
66.6425
64.4365
61.2365
57.2934
52.6371
47.442
41.841
35.8644
29.5995
23.0816
16.3304
9.38544
2.28023
-4.93619
-12.1975
-19.4161
-26.4751
-33.22
-39.4856
-45.1104
-50.0568
-54.4406
-58.2974
-61.5101
-63.9196
-65.345
-65.5875
-64.4522
-61.7464
-57.2973
-50.9785
-42.7471
-32.705
-21.1502
-9.27234
62.2685
58.7962
53.9118
47.1359
39.1003
29.4208
18.2298
6.45946
-5.0986
-16.205
-26.4996
-35.635
-43.6904
-50.7839
-56.9978
-62.5184
-67.5056
-72.0821
-76.3809
-80.5144
-84.5703
-88.6204
-92.7236
-96.832
-100.702