<VTKFile type="UnstructuredGrid" version="1.0" byte_order="LittleEndian" header_type="UInt64">
  <UnstructuredGrid>
    <Piece NumberOfPoints="216" NumberOfCells="1050">
      <PointData Scalars="Label">
        <DataArray type="Int32" Name="Label" format="ascii" RangeMin="0" RangeMax="1">
          0 0 0 0 0 1
          0 0 0 0 0 0
          0 0 0 0 0 0
          0 0 0 0 0 0
          0 0 0 0 0 0
          1 0 0 0 0 1
          0 0 0 0 0 0
          0 0 0 0 0 0
          0 0 0 0 0 0
          0 0 0 0 0 0
          0 0 0 0 0 0
          0 0 0 0 0 0
          0 0 0 0 0 0
          0 0 0 0 0 0
          0 0 0 0 0 0
          0 0 0 0 0 0
          0 0 0 0 0 0
          0 0 0 0 0 0
          0 0 0 0 0 0
          0 0 0 0 0 0
          0 0 0 0 0 0
          0 0 0 0 0 0
          0 0 0 0 0 0
          0 0 0 0 0 0
          0 0 0 0 0 0
          0 0 0 0 0 0
          0 0 0 0 0 0
          0 0 0 0 0 0
          0 0 0 0 0 0
          0 0 0 0 0 0
          1 0 0 0 0 1
          0 0 0 0 0 0
          0 0 0 0 0 0
          0 0 0 0 0 0
          0 0 0 0 0 0
          1 0 0 0 0 1
        </DataArray>
        <DataArray type="Float64" Name="Velocity" NumberOfComponents="3" format="ascii" RangeMin="0.10548776948026314" RangeMax="3.7795948472061807">
          0.06090339210564311 0.06090339210564311 0.06090339210564311 0.08929676341613355 0.08929676341613355 0.08929676341613355
          0.11094540224782837 0.11094540224782837 0.11094540224782837 0.12159704317119709 0.12159704317119709 0.12159704317119709
          0.12588123204100204 0.12588123204100204 0.12588123204100204 0.11089842968635542 0.11089842968635542 0.11089842968635542
          0.08929676341613355 0.08929676341613355 0.08929676341613355 0.13570847081601317 0.13570847081601317 0.13570847081601317
          0.17513970864189202 0.17513970864189202 0.17513970864189202 0.19518971958913783 0.19518971958913783 0.19518971958913783
          0.20369952077427966 0.20369952077427966 0.20369952077427966 0.16453043857313543 0.16453043857313543 0.16453043857313543
          0.1109454022478283 0.1109454022478283 0.1109454022478283 0.175139708641892 0.175139708641892 0.175139708641892
          0.23130841239152433 0.23130841239152433 0.23130841239152433 0.2610900897623552 0.2610900897623552 0.2610900897623552
          0.27410321254039816 0.27410321254039816 0.27410321254039816 0.22661628278714377 0.22661628278714377 0.22661628278714377
          0.12159704317119695 0.12159704317119695 0.12159704317119695 0.1951897195891377 0.1951897195891377 0.1951897195891377
          0.26109008976235515 0.26109008976235515 0.26109008976235515 0.29706718904078355 0.29706718904078355 0.29706718904078355
          0.3132271940657582 0.3132271940657582 0.3132271940657582 0.2615072695030703 0.2615072695030703 0.2615072695030703
          0.12588123204100193 0.12588123204100193 0.12588123204100193 0.2036995207742795 0.2036995207742795 0.2036995207742795
          0.27410321254039816 0.27410321254039816 0.27410321254039816 0.3132271940657582 0.3132271940657582 0.3132271940657582
          0.33167550168789595 0.33167550168789595 0.33167550168789595 0.2787348804706434 0.2787348804706434 0.2787348804706434
          0.11089842968635528 0.11089842968635528 0.11089842968635528 0.16453043857313537 0.16453043857313537 0.16453043857313537
          0.22661628278714385 0.22661628278714385 0.22661628278714385 0.26150726950307035 0.26150726950307035 0.26150726950307035
          0.27873488047064326 0.27873488047064326 0.27873488047064326 0.23666959545202917 0.23666959545202917 0.23666959545202917
          0.08929676341613353 0.08929676341613353 0.08929676341613353 0.1357084708160132 0.1357084708160132 0.1357084708160132
          0.17513970864189204 0.17513970864189204 0.17513970864189204 0.19518971958913783 0.19518971958913783 0.19518971958913783
          0.2036995207742797 0.2036995207742797 0.2036995207742797 0.16453043857313548 0.16453043857313548 0.16453043857313548
          0.13570847081601317 0.13570847081601317 0.13570847081601317 0.2467016589625021 0.2467016589625021 0.2467016589625021
          0.34711660578103887 0.34711660578103887 0.34711660578103887 0.3982051895213754 0.3982051895213754 0.3982051895213754
          0.42144239720512083 0.42144239720512083 0.42144239720512083 0.3184737385639743 0.3184737385639743 0.3184737385639743
          0.17513970864189196 0.17513970864189196 0.17513970864189196 0.34711660578103887 0.34711660578103887 0.34711660578103887
          0.5126899805581479 0.5126899805581479 0.5126899805581479 0.600566770092123 0.600566770092123 0.600566770092123
          0.6421507021522795 0.6421507021522795 0.6421507021522795 0.5240700767169258 0.5240700767169258 0.5240700767169258
          0.1951897195891377 0.1951897195891377 0.1951897195891377 0.3982051895213752 0.3982051895213752 0.3982051895213752
          0.600566770092123 0.600566770092123 0.600566770092123 0.7123177920495779 0.7123177920495779 0.7123177920495779
          0.7669512052830649 0.7669512052830649 0.7669512052830649 0.6413330432424182 0.6413330432424182 0.6413330432424182
          0.2036995207742795 0.2036995207742795 0.2036995207742795 0.4214423972051206 0.4214423972051206 0.4214423972051206
          0.6421507021522794 0.6421507021522794 0.6421507021522794 0.7669512052830649 0.7669512052830649 0.7669512052830649
          0.8301743585648608 0.8301743585648608 0.8301743585648608 0.7033840927058033 0.7033840927058033 0.7033840927058033
          0.16453043857313537 0.16453043857313537 0.16453043857313537 0.3184737385639742 0.3184737385639742 0.3184737385639742
          0.5240700767169257 0.5240700767169257 0.5240700767169257 0.6413330432424182 0.6413330432424182 0.6413330432424182
          0.7033840927058033 0.7033840927058033 0.7033840927058033 0.6091079219103552 0.6091079219103552 0.6091079219103552
          0.11094540224782824 0.11094540224782824 0.11094540224782824 0.175139708641892 0.175139708641892 0.175139708641892
          0.23130841239152433 0.23130841239152433 0.23130841239152433 0.26109008976235526 0.26109008976235526 0.26109008976235526
          0.27410321254039816 0.27410321254039816 0.27410321254039816 0.22661628278714385 0.22661628278714385 0.22661628278714385
          0.17513970864189193 0.17513970864189193 0.17513970864189193 0.3471166057810388 0.3471166057810388 0.3471166057810388
          0.5126899805581479 0.5126899805581479 0.5126899805581479 0.6005667700921232 0.6005667700921232 0.6005667700921232
          0.6421507021522795 0.6421507021522795 0.6421507021522795 0.524070076716926 0.524070076716926 0.524070076716926
          0.23130841239152433 0.23130841239152433 0.23130841239152433 0.5126899805581477 0.5126899805581477 0.5126899805581477
          0.808882316821819 0.808882316821819 0.808882316821819 0.9717412950530441 0.9717412950530441 0.9717412950530441
          1.0519564874898812 1.0519564874898812 1.0519564874898812 0.9564986217870045 0.9564986217870045 0.9564986217870045
          0.2610900897623552 0.2610900897623552 0.2610900897623552 0.6005667700921231 0.6005667700921231 0.6005667700921231
          0.971741295053044 0.971741295053044 0.971741295053044 1.1842377132463466 1.1842377132463466 1.1842377132463466
          1.292376017866097 1.292376017866097 1.292376017866097 1.2128512373778644 1.2128512373778644 1.2128512373778644
          0.2741032125403982 0.2741032125403982 0.2741032125403982 0.6421507021522794 0.6421507021522794 0.6421507021522794
          1.051956487489881 1.051956487489881 1.051956487489881 1.2923760178660972 1.2923760178660972 1.2923760178660972
          1.4187848994298706 1.4187848994298706 1.4187848994298706 1.3534372364660312 1.3534372364660312 1.3534372364660312
          0.22661628278714394 0.22661628278714394 0.22661628278714394 0.524070076716926 0.524070076716926 0.524070076716926
          0.9564986217870047 0.9564986217870047 0.9564986217870047 1.2128512373778644 1.2128512373778644 1.2128512373778644
          1.3534372364660312 1.3534372364660312 1.3534372364660312 1.3276703373463674 1.3276703373463674 1.3276703373463674
          0.12159704317119682 0.12159704317119682 0.12159704317119682 0.19518971958913764 0.19518971958913764 0.19518971958913764
          0.26109008976235515 0.26109008976235515 0.26109008976235515 0.2970671890407835 0.2970671890407835 0.2970671890407835
          0.3132271940657582 0.3132271940657582 0.3132271940657582 0.26150726950307035 0.26150726950307035 0.26150726950307035
          0.19518971958913764 0.19518971958913764 0.19518971958913764 0.39820518952137496 0.39820518952137496 0.39820518952137496
          0.600566770092123 0.600566770092123 0.600566770092123 0.7123177920495779 0.7123177920495779 0.7123177920495779
          0.7669512052830653 0.7669512052830653 0.7669512052830653 0.6413330432424185 0.6413330432424185 0.6413330432424185
          0.26109008976235515 0.26109008976235515 0.26109008976235515 0.6005667700921229 0.6005667700921229 0.6005667700921229
          0.971741295053044 0.971741295053044 0.971741295053044 1.1842377132463462 1.1842377132463462 1.1842377132463462
          1.2923760178660968 1.2923760178660968 1.2923760178660968 1.2128512373778646 1.2128512373778646 1.2128512373778646
          0.2970671890407836 0.2970671890407836 0.2970671890407836 0.712317792049578 0.712317792049578 0.712317792049578
          1.1842377132463466 1.1842377132463466 1.1842377132463466 1.4648739858340578 1.4648739858340578 1.4648739858340578
          1.6121769400815749 1.6121769400815749 1.6121769400815749 1.5662388665970874 1.5662388665970874 1.5662388665970874
          0.3132271940657583 0.3132271940657583 0.3132271940657583 0.7669512052830653 0.7669512052830653 0.7669512052830653
          1.2923760178660977 1.2923760178660977 1.2923760178660977 1.612176940081575 1.612176940081575 1.612176940081575
          1.7851916548216107 1.7851916548216107 1.7851916548216107 1.7656948130840857 1.7656948130840857 1.7656948130840857
          0.26150726950307035 0.26150726950307035 0.26150726950307035 0.6413330432424185 0.6413330432424185 0.6413330432424185
          1.2128512373778646 1.2128512373778646 1.2128512373778646 1.5662388665970879 1.5662388665970879 1.5662388665970879
          1.7656948130840862 1.7656948130840862 1.7656948130840862 1.79207715640304 1.79207715640304 1.79207715640304
          0.12588123204100182 0.12588123204100182 0.12588123204100182 0.20369952077427936 0.20369952077427936 0.20369952077427936
          0.274103212540398 0.274103212540398 0.274103212540398 0.3132271940657581 0.3132271940657581 0.3132271940657581
          0.33167550168789595 0.33167550168789595 0.33167550168789595 0.2787348804706434 0.2787348804706434 0.2787348804706434
          0.20369952077427944 0.20369952077427944 0.20369952077427944 0.4214423972051205 0.4214423972051205 0.4214423972051205
          0.6421507021522793 0.6421507021522793 0.6421507021522793 0.7669512052830649 0.7669512052830649 0.7669512052830649
          0.8301743585648604 0.8301743585648604 0.8301743585648604 0.7033840927058033 0.7033840927058033 0.7033840927058033
          0.2741032125403981 0.2741032125403981 0.2741032125403981 0.6421507021522793 0.6421507021522793 0.6421507021522793
          1.0519564874898808 1.0519564874898808 1.0519564874898808 1.2923760178660968 1.2923760178660968 1.2923760178660968
          1.41878489942987 1.41878489942987 1.41878489942987 1.3534372364660312 1.3534372364660312 1.3534372364660312
          0.3132271940657583 0.3132271940657583 0.3132271940657583 0.7669512052830653 0.7669512052830653 0.7669512052830653
          1.292376017866097 1.292376017866097 1.292376017866097 1.6121769400815753 1.6121769400815753 1.6121769400815753
          1.7851916548216111 1.7851916548216111 1.7851916548216111 1.7656948130840857 1.7656948130840857 1.7656948130840857
          0.3316755016878961 0.3316755016878961 0.3316755016878961 0.830174358564861 0.830174358564861 0.830174358564861
          1.4187848994298713 1.4187848994298713 1.4187848994298713 1.7851916548216114 1.7851916548216114 1.7851916548216114
          1.988424287529267 1.988424287529267 1.988424287529267 2.0035164327309043 2.0035164327309043 2.0035164327309043
          0.2787348804706436 0.2787348804706436 0.2787348804706436 0.7033840927058039 0.7033840927058039 0.7033840927058039
          1.3534372364660323 1.3534372364660323 1.3534372364660323 1.7656948130840868 1.7656948130840868 1.7656948130840868
          2.0035164327309043 2.0035164327309043 2.0035164327309043 2.067855593869178 2.067855593869178 2.067855593869178
          0.11089842968635522 0.11089842968635522 0.11089842968635522 0.16453043857313526 0.16453043857313526 0.16453043857313526
          0.22661628278714369 0.22661628278714369 0.22661628278714369 0.2615072695030702 0.2615072695030702 0.2615072695030702
          0.27873488047064326 0.27873488047064326 0.27873488047064326 0.23666959545202923 0.23666959545202923 0.23666959545202923
          0.16453043857313526 0.16453043857313526 0.16453043857313526 0.3184737385639741 0.3184737385639741 0.3184737385639741
          0.5240700767169257 0.5240700767169257 0.5240700767169257 0.6413330432424179 0.6413330432424179 0.6413330432424179
          0.7033840927058032 0.7033840927058032 0.7033840927058032 0.6091079219103553 0.6091079219103553 0.6091079219103553
          0.22661628278714377 0.22661628278714377 0.22661628278714377 0.5240700767169257 0.5240700767169257 0.5240700767169257
          0.9564986217870044 0.9564986217870044 0.9564986217870044 1.2128512373778644 1.2128512373778644 1.2128512373778644
          1.3534372364660312 1.3534372364660312 1.3534372364660312 1.3276703373463672 1.3276703373463672 1.3276703373463672
          0.2615072695030704 0.2615072695030704 0.2615072695030704 0.6413330432424185 0.6413330432424185 0.6413330432424185
          1.2128512373778646 1.2128512373778646 1.2128512373778646 1.5662388665970877 1.5662388665970877 1.5662388665970877
          1.765694813084086 1.765694813084086 1.765694813084086 1.7920771564030393 1.7920771564030393 1.7920771564030393
          0.2787348804706436 0.2787348804706436 0.2787348804706436 0.703384092705804 0.703384092705804 0.703384092705804
          1.353437236466032 1.353437236466032 1.353437236466032 1.7656948130840864 1.7656948130840864 1.7656948130840864
          2.003516432730904 2.003516432730904 2.003516432730904 2.067855593869178 2.067855593869178 2.067855593869178
          0.2366695954520294 0.2366695954520294 0.2366695954520294 0.6091079219103557 0.6091079219103557 0.6091079219103557
          1.3276703373463685 1.3276703373463685 1.3276703373463685 1.7920771564030413 1.7920771564030413 1.7920771564030413
          2.0678555938691785 2.0678555938691785 2.0678555938691785 2.1821501024622108 2.1821501024622108 2.1821501024622108
          <InformationKey name="L2_NORM_RANGE" location="vtkDataArray" length="2">
            <Value index="0">
              0.10548776948
            </Value>
            <Value index="1">
              3.7795948472
            </Value>
          </InformationKey>
          <InformationKey name="L2_NORM_FINITE_RANGE" location="vtkDataArray" length="2">
            <Value index="0">
              0.10548776948
            </Value>
            <Value index="1">
              3.7795948472
            </Value>
          </InformationKey>
        </DataArray>
      </PointData>
      <CellData>
      </CellData>
      <Points>
        <DataArray type="Float32" Name="Points" NumberOfComponents="3" format="ascii" RangeMin="0" RangeMax="1.7320508075688772">
          0 0 0 0.20000000298023224 0 0
          0.4000000059604645 0 0 0.6000000238418579 0 0
          0.800000011920929 0 0 1 0 0
          0 0.20000000298023224 0 0.20000000298023224 0.20000000298023224 0
          0.4000000059604645 0.20000000298023224 0 0.6000000238418579 0.20000000298023224 0
          0.800000011920929 0.20000000298023224 0 1 0.20000000298023224 0
          0 0.4000000059604645 0 0.20000000298023224 0.4000000059604645 0
          0.4000000059604645 0.4000000059604645 0 0.6000000238418579 0.4000000059604645 0
          0.800000011920929 0.4000000059604645 0 1 0.4000000059604645 0
          0 0.6000000238418579 0 0.20000000298023224 0.6000000238418579 0
          0.4000000059604645 0.6000000238418579 0 0.6000000238418579 0.6000000238418579 0
          0.800000011920929 0.6000000238418579 0 1 0.6000000238418579 0
          0 0.800000011920929 0 0.20000000298023224 0.800000011920929 0
          0.4000000059604645 0.800000011920929 0 0.6000000238418579 0.800000011920929 0
          0.800000011920929 0.800000011920929 0 1 0.800000011920929 0
          0 1 0 0.20000000298023224 1 0
          0.4000000059604645 1 0 0.6000000238418579 1 0
          0.800000011920929 1 0 1 1 0
          0 0 0.20000000298023224 0.20000000298023224 0 0.20000000298023224
          0.4000000059604645 0 0.20000000298023224 0.6000000238418579 0 0.20000000298023224
          0.800000011920929 0 0.20000000298023224 1 0 0.20000000298023224
          0 0.20000000298023224 0.20000000298023224 0.20000000298023224 0.20000000298023224 0.20000000298023224
          0.4000000059604645 0.20000000298023224 0.20000000298023224 0.6000000238418579 0.20000000298023224 0.20000000298023224
          0.800000011920929 0.20000000298023224 0.20000000298023224 1 0.20000000298023224 0.20000000298023224
          0 0.4000000059604645 0.20000000298023224 0.20000000298023224 0.4000000059604645 0.20000000298023224
          0.4000000059604645 0.4000000059604645 0.20000000298023224 0.6000000238418579 0.4000000059604645 0.20000000298023224
          0.800000011920929 0.4000000059604645 0.20000000298023224 1 0.4000000059604645 0.20000000298023224
          0 0.6000000238418579 0.20000000298023224 0.20000000298023224 0.6000000238418579 0.20000000298023224
          0.4000000059604645 0.6000000238418579 0.20000000298023224 0.6000000238418579 0.6000000238418579 0.20000000298023224
          0.800000011920929 0.6000000238418579 0.20000000298023224 1 0.6000000238418579 0.20000000298023224
          0 0.800000011920929 0.20000000298023224 0.20000000298023224 0.800000011920929 0.20000000298023224
          0.4000000059604645 0.800000011920929 0.20000000298023224 0.6000000238418579 0.800000011920929 0.20000000298023224
          0.800000011920929 0.800000011920929 0.20000000298023224 1 0.800000011920929 0.20000000298023224
          0 1 0.20000000298023224 0.20000000298023224 1 0.20000000298023224
          0.4000000059604645 1 0.20000000298023224 0.6000000238418579 1 0.20000000298023224
          0.800000011920929 1 0.20000000298023224 1 1 0.20000000298023224
          0 0 0.4000000059604645 0.20000000298023224 0 0.4000000059604645
          0.4000000059604645 0 0.4000000059604645 0.6000000238418579 0 0.4000000059604645
          0.800000011920929 0 0.4000000059604645 1 0 0.4000000059604645
          0 0.20000000298023224 0.4000000059604645 0.20000000298023224 0.20000000298023224 0.4000000059604645
          0.4000000059604645 0.20000000298023224 0.4000000059604645 0.6000000238418579 0.20000000298023224 0.4000000059604645
          0.800000011920929 0.20000000298023224 0.4000000059604645 1 0.20000000298023224 0.4000000059604645
          0 0.4000000059604645 0.4000000059604645 0.20000000298023224 0.4000000059604645 0.4000000059604645
          0.4000000059604645 0.4000000059604645 0.4000000059604645 0.6000000238418579 0.4000000059604645 0.4000000059604645
          0.800000011920929 0.4000000059604645 0.4000000059604645 1 0.4000000059604645 0.4000000059604645
          0 0.6000000238418579 0.4000000059604645 0.20000000298023224 0.6000000238418579 0.4000000059604645
          0.4000000059604645 0.6000000238418579 0.4000000059604645 0.6000000238418579 0.6000000238418579 0.4000000059604645
          0.800000011920929 0.6000000238418579 0.4000000059604645 1 0.6000000238418579 0.4000000059604645
          0 0.800000011920929 0.4000000059604645 0.20000000298023224 0.800000011920929 0.4000000059604645
          0.4000000059604645 0.800000011920929 0.4000000059604645 0.6000000238418579 0.800000011920929 0.4000000059604645
          0.800000011920929 0.800000011920929 0.4000000059604645 1 0.800000011920929 0.4000000059604645
          0 1 0.4000000059604645 0.20000000298023224 1 0.4000000059604645
          0.4000000059604645 1 0.4000000059604645 0.6000000238418579 1 0.4000000059604645
          0.800000011920929 1 0.4000000059604645 1 1 0.4000000059604645
          0 0 0.6000000238418579 0.20000000298023224 0 0.6000000238418579
          0.4000000059604645 0 0.6000000238418579 0.6000000238418579 0 0.6000000238418579
          0.800000011920929 0 0.6000000238418579 1 0 0.6000000238418579
          0 0.20000000298023224 0.6000000238418579 0.20000000298023224 0.20000000298023224 0.6000000238418579
          0.4000000059604645 0.20000000298023224 0.6000000238418579 0.6000000238418579 0.20000000298023224 0.6000000238418579
          0.800000011920929 0.20000000298023224 0.6000000238418579 1 0.20000000298023224 0.6000000238418579
          0 0.4000000059604645 0.6000000238418579 0.20000000298023224 0.4000000059604645 0.6000000238418579
          0.4000000059604645 0.4000000059604645 0.6000000238418579 0.6000000238418579 0.4000000059604645 0.6000000238418579
          0.800000011920929 0.4000000059604645 0.6000000238418579 1 0.4000000059604645 0.6000000238418579
          0 0.6000000238418579 0.6000000238418579 0.20000000298023224 0.6000000238418579 0.6000000238418579
          0.4000000059604645 0.6000000238418579 0.6000000238418579 0.6000000238418579 0.6000000238418579 0.6000000238418579
          0.800000011920929 0.6000000238418579 0.6000000238418579 1 0.6000000238418579 0.6000000238418579
          0 0.800000011920929 0.6000000238418579 0.20000000298023224 0.800000011920929 0.6000000238418579
          0.4000000059604645 0.800000011920929 0.6000000238418579 0.6000000238418579 0.800000011920929 0.6000000238418579
          0.800000011920929 0.800000011920929 0.6000000238418579 1 0.800000011920929 0.6000000238418579
          0 1 0.6000000238418579 0.20000000298023224 1 0.6000000238418579
          0.4000000059604645 1 0.6000000238418579 0.6000000238418579 1 0.6000000238418579
          0.800000011920929 1 0.6000000238418579 1 1 0.6000000238418579
          0 0 0.800000011920929 0.20000000298023224 0 0.800000011920929
          0.4000000059604645 0 0.800000011920929 0.6000000238418579 0 0.800000011920929
          0.800000011920929 0 0.800000011920929 1 0 0.800000011920929
          0 0.20000000298023224 0.800000011920929 0.20000000298023224 0.20000000298023224 0.800000011920929
          0.4000000059604645 0.20000000298023224 0.800000011920929 0.6000000238418579 0.20000000298023224 0.800000011920929
          0.800000011920929 0.20000000298023224 0.800000011920929 1 0.20000000298023224 0.800000011920929
          0 0.4000000059604645 0.800000011920929 0.20000000298023224 0.4000000059604645 0.800000011920929
          0.4000000059604645 0.4000000059604645 0.800000011920929 0.6000000238418579 0.4000000059604645 0.800000011920929
          0.800000011920929 0.4000000059604645 0.800000011920929 1 0.4000000059604645 0.800000011920929
          0 0.6000000238418579 0.800000011920929 0.20000000298023224 0.6000000238418579 0.800000011920929
          0.4000000059604645 0.6000000238418579 0.800000011920929 0.6000000238418579 0.6000000238418579 0.800000011920929
          0.800000011920929 0.6000000238418579 0.800000011920929 1 0.6000000238418579 0.800000011920929
          0 0.800000011920929 0.800000011920929 0.20000000298023224 0.800000011920929 0.800000011920929
          0.4000000059604645 0.800000011920929 0.800000011920929 0.6000000238418579 0.800000011920929 0.800000011920929
          0.800000011920929 0.800000011920929 0.800000011920929 1 0.800000011920929 0.800000011920929
          0 1 0.800000011920929 0.20000000298023224 1 0.800000011920929
          0.4000000059604645 1 0.800000011920929 0.6000000238418579 1 0.800000011920929
          0.800000011920929 1 0.800000011920929 1 1 0.800000011920929
          0 0 1 0.20000000298023224 0 1
          0.4000000059604645 0 1 0.6000000238418579 0 1
          0.800000011920929 0 1 1 0 1
          0 0.20000000298023224 1 0.20000000298023224 0.20000000298023224 1
          0.4000000059604645 0.20000000298023224 1 0.6000000238418579 0.20000000298023224 1
          0.800000011920929 0.20000000298023224 1 1 0.20000000298023224 1
          0 0.4000000059604645 1 0.20000000298023224 0.4000000059604645 1
          0.4000000059604645 0.4000000059604645 1 0.6000000238418579 0.4000000059604645 1
          0.800000011920929 0.4000000059604645 1 1 0.4000000059604645 1
          0 0.6000000238418579 1 0.20000000298023224 0.6000000238418579 1
          0.4000000059604645 0.6000000238418579 1 0.6000000238418579 0.6000000238418579 1
          0.800000011920929 0.6000000238418579 1 1 0.6000000238418579 1
          0 0.800000011920929 1 0.20000000298023224 0.800000011920929 1
          0.4000000059604645 0.800000011920929 1 0.6000000238418579 0.800000011920929 1
          0.800000011920929 0.800000011920929 1 1 0.800000011920929 1
          0 1 1 0.20000000298023224 1 1
          0.4000000059604645 1 1 0.6000000238418579 1 1
          0.800000011920929 1 1 1 1 1
          <InformationKey name="L2_NORM_FINITE_RANGE" location="vtkDataArray" length="2">
            <Value index="0">
              0
            </Value>
            <Value index="1">
              1.7320508076
            </Value>
          </InformationKey>
          <InformationKey name="L2_NORM_RANGE" location="vtkDataArray" length="2">
            <Value index="0">
              0
            </Value>
            <Value index="1">
              1.7320508076
            </Value>
          </InformationKey>
        </DataArray>
      </Points>
      <Cells>
        <DataArray type="Int64" IdType="1" Name="connectivity" format="ascii" RangeMin="0" RangeMax="215">
          36 0 42 43 0 36
          37 43 1 0 37 43
          0 1 7 43 6 0
          7 43 0 6 42 43
          37 1 43 44 1 37
          38 44 2 1 38 44
          1 2 8 44 7 1
          8 44 1 7 43 44
          38 2 44 45 2 38
          39 45 3 2 39 45
          2 3 9 45 8 2
          9 45 2 8 44 45
          39 3 45 46 3 39
          40 46 4 3 40 46
          3 4 10 46 9 3
          10 46 3 9 45 46
          40 4 46 47 4 40
          41 47 5 4 41 47
          4 5 11 47 10 4
          11 47 4 10 46 47
          42 6 48 49 6 42
          43 49 7 6 43 49
          6 7 13 49 12 6
          13 49 6 12 48 49
          43 7 49 50 7 43
          44 50 8 7 44 50
          7 8 14 50 13 7
          14 50 7 13 49 50
          44 8 50 51 8 44
          45 51 9 8 45 51
          8 9 15 51 14 8
          15 51 8 14 50 51
          45 9 51 52 9 45
          46 52 10 9 46 52
          9 10 16 52 15 9
          16 52 9 15 51 52
          46 10 52 53 10 46
          47 53 11 10 47 53
          10 11 17 53 16 10
          17 53 10 16 52 53
          48 12 54 55 12 48
          49 55 13 12 49 55
          12 13 19 55 18 12
          19 55 12 18 54 55
          49 13 55 56 13 49
          50 56 14 13 50 56
          13 14 20 56 19 13
          20 56 13 19 55 56
          50 14 56 57 14 50
          51 57 15 14 51 57
          14 15 21 57 20 14
          21 57 14 20 56 57
          51 15 57 58 15 51
          52 58 16 15 52 58
          15 16 22 58 21 15
          22 58 15 21 57 58
          52 16 58 59 16 52
          53 59 17 16 53 59
          16 17 23 59 22 16
          23 59 16 22 58 59
          54 18 60 61 18 54
          55 61 19 18 55 61
          18 19 25 61 24 18
          25 61 18 24 60 61
          55 19 61 62 19 55
          56 62 20 19 56 62
          19 20 26 62 25 19
          26 62 19 25 61 62
          56 20 62 63 20 56
          57 63 21 20 57 63
          20 21 27 63 26 20
          27 63 20 26 62 63
          57 21 63 64 21 57
          58 64 22 21 58 64
          21 22 28 64 27 21
          28 64 21 27 63 64
          58 22 64 65 22 58
          59 65 23 22 59 65
          22 23 29 65 28 22
          29 65 22 28 64 65
          60 24 66 67 24 60
          61 67 25 24 61 67
          24 25 31 67 30 24
          31 67 24 30 66 67
          61 25 67 68 25 61
          62 68 26 25 62 68
          25 26 32 68 31 25
          32 68 25 31 67 68
          62 26 68 69 26 62
          63 69 27 26 63 69
          26 27 33 69 32 26
          33 69 26 32 68 69
          63 27 69 70 27 63
          64 70 28 27 64 70
          27 28 34 70 33 27
          34 70 27 33 69 70
          64 28 70 71 28 64
          65 71 29 28 65 71
          28 29 35 71 34 28
          35 71 28 34 70 71
          72 36 78 79 36 72
          73 79 37 36 73 79
          36 37 43 79 42 36
          43 79 36 42 78 79
          73 37 79 80 37 73
          74 80 38 37 74 80
          37 38 44 80 43 37
          44 80 37 43 79 80
          74 38 80 81 38 74
          75 81 39 38 75 81
          38 39 45 81 44 38
          45 81 38 44 80 81
          75 39 81 82 39 75
          76 82 40 39 76 82
          39 40 46 82 45 39
          46 82 39 45 81 82
          76 40 82 83 40 76
          77 83 41 40 77 83
          40 41 47 83 46 40
          47 83 40 46 82 83
          78 42 84 85 42 78
          79 85 43 42 79 85
          42 43 49 85 48 42
          49 85 42 48 84 85
          79 43 85 86 43 79
          80 86 44 43 80 86
          43 44 50 86 49 43
          50 86 43 49 85 86
          80 44 86 87 44 80
          81 87 45 44 81 87
          44 45 51 87 50 44
          51 87 44 50 86 87
          81 45 87 88 45 81
          82 88 46 45 82 88
          45 46 52 88 51 45
          52 88 45 51 87 88
          82 46 88 89 46 82
          83 89 47 46 83 89
          46 47 53 89 52 46
          53 89 46 52 88 89
          84 48 90 91 48 84
          85 91 49 48 85 91
          48 49 55 91 54 48
          55 91 48 54 90 91
          85 49 91 92 49 85
          86 92 50 49 86 92
          49 50 56 92 55 49
          56 92 49 55 91 92