<VTKFile type="UnstructuredGrid" version="1.0" byte_order="LittleEndian" header_type="UInt64">
  <UnstructuredGrid>
    <Piece NumberOfPoints="216" NumberOfCells="1050">
      <PointData Scalars="Label">
        <DataArray type="Int32" Name="Label" format="ascii" RangeMin="0" RangeMax="1">
          0 0 0 0 0 1
          0 0 0 0 0 0
          0 0 0 0 0 0
          0 0 0 0 0 0
          0 0 0 0 0 0
          1 0 0 0 0 1
          0 0 0 0 0 0
          0 0 0 0 0 0
          0 0 0 0 0 0
          0 0 0 0 0 0
          0 0 0 0 0 0
          0 0 0 0 0 0
          0 0 0 0 0 0
          0 0 0 0 0 0
          0 0 0 0 0 0
          0 0 0 0 0 0
          0 0 0 0 0 0
          0 0 0 0 0 0
          0 0 0 0 0 0
          0 0 0 0 0 0
          0 0 0 0 0 0
          0 0 0 0 0 0
          0 0 0 0 0 0
          0 0 0 0 0 0
          0 0 0 0 0 0
          0 0 0 0 0 0
          0 0 0 0 0 0
          0 0 0 0 0 0
          0 0 0 0 0 0
          0 0 0 0 0 0
          1 0 0 0 0 1
          0 0 0 0 0 0
          0 0 0 0 0 0
          0 0 0 0 0 0
          0 0 0 0 0 0
          1 0 0 0 0 1
        </DataArray>
        <DataArray type="Float64" Name="Velocity" NumberOfComponents="3" format="ascii" RangeMin="0.23207309285657968" RangeMax="8.31510866385361">
          0.1339874626324153 0.1339874626324153 0.1339874626324153 0.19645287951549434 0.19645287951549434 0.19645287951549434
          0.24407988494522298 0.24407988494522298 0.24407988494522298 0.267513494976634 0.267513494976634 0.267513494976634
          0.276938710490205 0.276938710490205 0.276938710490205 0.24397654530998228 0.24397654530998228 0.24397654530998228
          0.1964528795154943 0.1964528795154943 0.1964528795154943 0.29855863579522973 0.29855863579522973 0.29855863579522973
          0.3853073590121634 0.3853073590121634 0.3853073590121634 0.4294173830961041 0.4294173830961041 0.4294173830961041
          0.44813894570341595 0.44813894570341595 0.44813894570341595 0.3619669648608986 0.3619669648608986 0.3619669648608986
          0.24407988494522276 0.24407988494522276 0.24407988494522276 0.38530735901216334 0.38530735901216334 0.38530735901216334
          0.5088785072613545 0.5088785072613545 0.5088785072613545 0.5743981974771826 0.5743981974771826 0.5743981974771826
          0.603027067588877 0.603027067588877 0.603027067588877 0.498555822131717 0.498555822131717 0.498555822131717
          0.26751349497663357 0.26751349497663357 0.26751349497663357 0.42941738309610383 0.42941738309610383 0.42941738309610383
          0.5743981974771822 0.5743981974771822 0.5743981974771822 0.6535478158897248 0.6535478158897248 0.6535478158897248
          0.6890998269446691 0.6890998269446691 0.6890998269446691 0.5753159929067555 0.5753159929067555 0.5753159929067555
          0.27693871049020463 0.27693871049020463 0.27693871049020463 0.44813894570341556 0.44813894570341556 0.44813894570341556
          0.6030270675888768 0.6030270675888768 0.6030270675888768 0.689099826944669 0.689099826944669 0.689099826944669
          0.7296861037133724 0.7296861037133724 0.7296861037133724 0.6132167370354162 0.6132167370354162 0.6132167370354162
          0.24397654530998206 0.24397654530998206 0.24397654530998206 0.36196696486089835 0.36196696486089835 0.36196696486089835
          0.4985558221317171 0.4985558221317171 0.4985558221317171 0.5753159929067556 0.5753159929067556 0.5753159929067556
          0.6132167370354162 0.6132167370354162 0.6132167370354162 0.5206731099944647 0.5206731099944647 0.5206731099944647
          0.19645287951549434 0.19645287951549434 0.19645287951549434 0.29855863579522973 0.29855863579522973 0.29855863579522973
          0.38530735901216345 0.38530735901216345 0.38530735901216345 0.42941738309610417 0.42941738309610417 0.42941738309610417
          0.44813894570341595 0.44813894570341595 0.44813894570341595 0.36196696486089863 0.36196696486089863 0.36196696486089863
          0.29855863579522973 0.29855863579522973 0.29855863579522973 0.5427436497175059 0.5427436497175059 0.5427436497175059
          0.7636565327182874 0.7636565327182874 0.7636565327182874 0.8760514169470279 0.8760514169470279 0.8760514169470279
          0.9271732738512676 0.9271732738512676 0.9271732738512676 0.7006422248407446 0.7006422248407446 0.7006422248407446
          0.3853073590121634 0.3853073590121634 0.3853073590121634 0.7636565327182873 0.7636565327182873 0.7636565327182873
          1.127917957227928 1.127917957227928 1.127917957227928 1.321246894202674 1.321246894202674 1.321246894202674
          1.4127315447350177 1.4127315447350177 1.4127315447350177 1.152954168777239 1.152954168777239 1.152954168777239
          0.4294173830961039 0.4294173830961039 0.4294173830961039 0.8760514169470272 0.8760514169470272 0.8760514169470272
          1.3212468942026734 1.3212468942026734 1.3212468942026734 1.5670991425090748 1.5670991425090748 1.5670991425090748
          1.687292651622746 1.687292651622746 1.687292651622746 1.4109326951333223 1.4109326951333223 1.4109326951333223
          0.44813894570341567 0.44813894570341567 0.44813894570341567 0.9271732738512671 0.9271732738512671 0.9271732738512671
          1.4127315447350173 1.4127315447350173 1.4127315447350173 1.687292651622746 1.687292651622746 1.687292651622746
          1.8263835888426962 1.8263835888426962 1.8263835888426962 1.5474450039527698 1.5474450039527698 1.5474450039527698
          0.3619669648608984 0.3619669648608984 0.3619669648608984 0.7006422248407442 0.7006422248407442 0.7006422248407442
          1.1529541687772387 1.1529541687772387 1.1529541687772387 1.4109326951333223 1.4109326951333223 1.4109326951333223
          1.54744500395277 1.54744500395277 1.54744500395277 1.3400374282027838 1.3400374282027838 1.3400374282027838
          0.24407988494522273 0.24407988494522273 0.24407988494522273 0.3853073590121633 0.3853073590121633 0.3853073590121633
          0.5088785072613546 0.5088785072613546 0.5088785072613546 0.5743981974771827 0.5743981974771827 0.5743981974771827
          0.6030270675888773 0.6030270675888773 0.6030270675888773 0.49855582213171734 0.49855582213171734 0.49855582213171734
          0.3853073590121632 0.3853073590121632 0.3853073590121632 0.7636565327182869 0.7636565327182869 0.7636565327182869
          1.127917957227928 1.127917957227928 1.127917957227928 1.3212468942026743 1.3212468942026743 1.3212468942026743
          1.4127315447350182 1.4127315447350182 1.4127315447350182 1.1529541687772396 1.1529541687772396 1.1529541687772396
          0.5088785072613545 0.5088785072613545 0.5088785072613545 1.127917957227928 1.127917957227928 1.127917957227928
          1.7795410970080061 1.7795410970080061 1.7795410970080061 2.1378308491167024 2.1378308491167024 2.1378308491167024
          2.314304272477743 2.314304272477743 2.314304272477743 2.104296967931414 2.104296967931414 2.104296967931414
          0.5743981974771826 0.5743981974771826 0.5743981974771826 1.321246894202674 1.321246894202674 1.321246894202674
          2.137830849116702 2.137830849116702 2.137830849116702 2.605322969141968 2.605322969141968 2.605322969141968
          2.8432272393054188 2.8432272393054188 2.8432272393054188 2.668272722231306 2.668272722231306 2.668272722231306
          0.603027067588877 0.603027067588877 0.603027067588877 1.412731544735018 1.412731544735018 1.412731544735018
          2.314304272477743 2.314304272477743 2.314304272477743 2.8432272393054183 2.8432272393054183 2.8432272393054183
          3.1213267787457206 3.1213267787457206 3.1213267787457206 2.977561920225273 2.977561920225273 2.977561920225273
          0.49855582213171734 0.49855582213171734 0.49855582213171734 1.1529541687772393 1.1529541687772393 1.1529541687772393
          2.1042969679314134 2.1042969679314134 2.1042969679314134 2.6682727222313067 2.6682727222313067 2.6682727222313067
          2.9775619202252743 2.9775619202252743 2.9775619202252743 2.9208747421620127 2.9208747421620127 2.9208747421620127
          0.2675134949766335 0.2675134949766335 0.2675134949766335 0.42941738309610367 0.42941738309610367 0.42941738309610367
          0.5743981974771822 0.5743981974771822 0.5743981974771822 0.6535478158897248 0.6535478158897248 0.6535478158897248
          0.6890998269446692 0.6890998269446692 0.6890998269446692 0.575315992906756 0.575315992906756 0.575315992906756
          0.4294173830961037 0.4294173830961037 0.4294173830961037 0.8760514169470267 0.8760514169470267 0.8760514169470267
          1.3212468942026734 1.3212468942026734 1.3212468942026734 1.5670991425090748 1.5670991425090748 1.5670991425090748
          1.6872926516227469 1.6872926516227469 1.6872926516227469 1.4109326951333228 1.4109326951333228 1.4109326951333228
          0.5743981974771823 0.5743981974771823 0.5743981974771823 1.3212468942026734 1.3212468942026734 1.3212468942026734
          2.1378308491167015 2.1378308491167015 2.1378308491167015 2.605322969141968 2.605322969141968 2.605322969141968
          2.843227239305419 2.843227239305419 2.843227239305419 2.6682727222313067 2.6682727222313067 2.6682727222313067
          0.6535478158897249 0.6535478158897249 0.6535478158897249 1.5670991425090752 1.5670991425090752 1.5670991425090752
          2.605322969141968 2.605322969141968 2.605322969141968 3.222722768834934 3.222722768834934 3.222722768834934
          3.5467892681794715 3.5467892681794715 3.5467892681794715 3.445725506513598 3.445725506513598 3.445725506513598
          0.6890998269446694 0.6890998269446694 0.6890998269446694 1.687292651622747 1.687292651622747 1.687292651622747
          2.84322723930542 2.84322723930542 2.84322723930542 3.5467892681794715 3.5467892681794715 3.5467892681794715
          3.9274216406075504 3.9274216406075504 3.9274216406075504 3.8845285887849945 3.8845285887849945 3.8845285887849945
          0.5753159929067562 0.5753159929067562 0.5753159929067562 1.4109326951333234 1.4109326951333234 1.4109326951333234
          2.6682727222313076 2.6682727222313076 2.6682727222313076 3.4457255065136003 3.4457255065136003 3.4457255065136003
          3.8845285887849954 3.8845285887849954 3.8845285887849954 3.942569744086693 3.942569744086693 3.942569744086693
          0.2769387104902046 0.2769387104902046 0.2769387104902046 0.4481389457034155 0.4481389457034155 0.4481389457034155
          0.6030270675888767 0.6030270675888767 0.6030270675888767 0.6890998269446691 0.6890998269446691 0.6890998269446691
          0.7296861037133724 0.7296861037133724 0.7296861037133724 0.6132167370354166 0.6132167370354166 0.6132167370354166
          0.4481389457034155 0.4481389457034155 0.4481389457034155 0.9271732738512668 0.9271732738512668 0.9271732738512668
          1.412731544735017 1.412731544735017 1.412731544735017 1.6872926516227462 1.6872926516227462 1.6872926516227462
          1.826383588842697 1.826383588842697 1.826383588842697 1.5474450039527705 1.5474450039527705 1.5474450039527705
          0.6030270675888769 0.6030270675888769 0.6030270675888769 1.4127315447350177 1.4127315447350177 1.4127315447350177
          2.314304272477742 2.314304272477742 2.314304272477742 2.8432272393054188 2.8432272393054188 2.8432272393054188
          3.1213267787457206 3.1213267787457206 3.1213267787457206 2.9775619202252743 2.9775619202252743 2.9775619202252743
          0.6890998269446693 0.6890998269446693 0.6890998269446693 1.687292651622747 1.687292651622747 1.687292651622747
          2.843227239305419 2.843227239305419 2.843227239305419 3.5467892681794706 3.5467892681794706 3.5467892681794706
          3.92742164060755 3.92742164060755 3.92742164060755 3.8845285887849954 3.8845285887849954 3.8845285887849954
          0.7296861037133726 0.7296861037133726 0.7296861037133726 1.8263835888426978 1.8263835888426978 1.8263835888426978
          3.121326778745722 3.121326778745722 3.121326778745722 3.927421640607552 3.927421640607552 3.927421640607552
          4.374533432564396 4.374533432564396 4.374533432564396 4.407736152007995 4.407736152007995 4.407736152007995
          0.6132167370354169 0.6132167370354169 0.6132167370354169 1.5474450039527712 1.5474450039527712 1.5474450039527712
          2.977561920225276 2.977561920225276 2.977561920225276 3.884528588784997 3.884528588784997 3.884528588784997
          4.407736152007997 4.407736152007997 4.407736152007997 4.549282306512199 4.549282306512199 4.549282306512199
          0.243976545309982 0.243976545309982 0.243976545309982 0.36196696486089824 0.36196696486089824 0.36196696486089824
          0.4985558221317172 0.4985558221317172 0.4985558221317172 0.5753159929067555 0.5753159929067555 0.5753159929067555
          0.6132167370354162 0.6132167370354162 0.6132167370354162 0.5206731099944647 0.5206731099944647 0.5206731099944647
          0.3619669648608983 0.3619669648608983 0.3619669648608983 0.7006422248407441 0.7006422248407441 0.7006422248407441
          1.1529541687772384 1.1529541687772384 1.1529541687772384 1.410932695133322 1.410932695133322 1.410932695133322
          1.5474450039527703 1.5474450039527703 1.5474450039527703 1.340037428202784 1.340037428202784 1.340037428202784
          0.4985558221317172 0.4985558221317172 0.4985558221317172 1.1529541687772389 1.1529541687772389 1.1529541687772389
          2.104296967931413 2.104296967931413 2.104296967931413 2.6682727222313063 2.6682727222313063 2.6682727222313063
          2.977561920225274 2.977561920225274 2.977561920225274 2.9208747421620127 2.9208747421620127 2.9208747421620127
          0.5753159929067562 0.5753159929067562 0.5753159929067562 1.4109326951333234 1.4109326951333234 1.4109326951333234
          2.668272722231307 2.668272722231307 2.668272722231307 3.4457255065136 3.4457255065136 3.4457255065136
          3.8845285887849963 3.8845285887849963 3.8845285887849963 3.942569744086694 3.942569744086694 3.942569744086694
          0.6132167370354169 0.6132167370354169 0.6132167370354169 1.5474450039527712 1.5474450039527712 1.5474450039527712
          2.977561920225276 2.977561920225276 2.977561920225276 3.8845285887849985 3.8845285887849985 3.8845285887849985
          4.407736152007998 4.407736152007998 4.407736152007998 4.549282306512199 4.549282306512199 4.549282306512199
          0.520673109994465 0.520673109994465 0.520673109994465 1.3400374282027845 1.3400374282027845 1.3400374282027845
          2.9208747421620154 2.9208747421620154 2.9208747421620154 3.9425697440866965 3.9425697440866965 3.9425697440866965
          4.5492823065122 4.5492823065122 4.5492823065122 4.8007302254168716 4.8007302254168716 4.8007302254168716
          <InformationKey name="L2_NORM_RANGE" location="vtkDataArray" length="2">
            <Value index="0">
              0.23207309286
            </Value>
            <Value index="1">
              8.3151086639
            </Value>
          </InformationKey>
          <InformationKey name="L2_NORM_FINITE_RANGE" location="vtkDataArray" length="2">
            <Value index="0">
              0.23207309286
            </Value>
            <Value index="1">
              8.3151086639
            </Value>
          </InformationKey>
        </DataArray>
      </PointData>
      <CellData>
      </CellData>
      <Points>
        <DataArray type="Float32" Name="Points" NumberOfComponents="3" format="ascii" RangeMin="0" RangeMax="1.7320508075688772">
          0 0 0 0.20000000298023224 0 0
          0.4000000059604645 0 0 0.6000000238418579 0 0
          0.800000011920929 0 0 1 0 0
          0 0.20000000298023224 0 0.20000000298023224 0.20000000298023224 0
          0.4000000059604645 0.20000000298023224 0 0.6000000238418579 0.20000000298023224 0
          0.800000011920929 0.20000000298023224 0 1 0.20000000298023224 0
          0 0.4000000059604645 0 0.20000000298023224 0.4000000059604645 0
          0.4000000059604645 0.4000000059604645 0 0.6000000238418579 0.4000000059604645 0
          0.800000011920929 0.4000000059604645 0 1 0.4000000059604645 0
          0 0.6000000238418579 0 0.20000000298023224 0.6000000238418579 0
          0.4000000059604645 0.6000000238418579 0 0.6000000238418579 0.6000000238418579 0
          0.800000011920929 0.6000000238418579 0 1 0.6000000238418579 0
          0 0.800000011920929 0 0.20000000298023224 0.800000011920929 0
          0.4000000059604645 0.800000011920929 0 0.6000000238418579 0.800000011920929 0
          0.800000011920929 0.800000011920929 0 1 0.800000011920929 0
          0 1 0 0.20000000298023224 1 0
          0.4000000059604645 1 0 0.6000000238418579 1 0
          0.800000011920929 1 0 1 1 0
          0 0 0.20000000298023224 0.20000000298023224 0 0.20000000298023224
          0.4000000059604645 0 0.20000000298023224 0.6000000238418579 0 0.20000000298023224
          0.800000011920929 0 0.20000000298023224 1 0 0.20000000298023224
          0 0.20000000298023224 0.20000000298023224 0.20000000298023224 0.20000000298023224 0.20000000298023224
          0.4000000059604645 0.20000000298023224 0.20000000298023224 0.6000000238418579 0.20000000298023224 0.20000000298023224
          0.800000011920929 0.20000000298023224 0.20000000298023224 1 0.20000000298023224 0.20000000298023224
          0 0.4000000059604645 0.20000000298023224 0.20000000298023224 0.4000000059604645 0.20000000298023224
          0.4000000059604645 0.4000000059604645 0.20000000298023224 0.6000000238418579 0.4000000059604645 0.20000000298023224
          0.800000011920929 0.4000000059604645 0.20000000298023224 1 0.4000000059604645 0.20000000298023224
          0 0.6000000238418579 0.20000000298023224 0.20000000298023224 0.6000000238418579 0.20000000298023224
          0.4000000059604645 0.6000000238418579 0.20000000298023224 0.6000000238418579 0.6000000238418579 0.20000000298023224
          0.800000011920929 0.6000000238418579 0.20000000298023224 1 0.6000000238418579 0.20000000298023224
          0 0.800000011920929 0.20000000298023224 0.20000000298023224 0.800000011920929 0.20000000298023224
          0.4000000059604645 0.800000011920929 0.20000000298023224 0.6000000238418579 0.800000011920929 0.20000000298023224
          0.800000011920929 0.800000011920929 0.20000000298023224 1 0.800000011920929 0.20000000298023224
          0 1 0.20000000298023224 0.20000000298023224 1 0.20000000298023224
          0.4000000059604645 1 0.20000000298023224 0.6000000238418579 1 0.20000000298023224
          0.800000011920929 1 0.20000000298023224 1 1 0.20000000298023224
          0 0 0.4000000059604645 0.20000000298023224 0 0.4000000059604645
          0.4000000059604645 0 0.4000000059604645 0.6000000238418579 0 0.4000000059604645
          0.800000011920929 0 0.4000000059604645 1 0 0.4000000059604645
          0 0.20000000298023224 0.4000000059604645 0.20000000298023224 0.20000000298023224 0.4000000059604645
          0.4000000059604645 0.20000000298023224 0.4000000059604645 0.6000000238418579 0.20000000298023224 0.4000000059604645
          0.800000011920929 0.20000000298023224 0.4000000059604645 1 0.20000000298023224 0.4000000059604645
          0 0.4000000059604645 0.4000000059604645 0.20000000298023224 0.4000000059604645 0.4000000059604645
          0.4000000059604645 0.4000000059604645 0.4000000059604645 0.6000000238418579 0.4000000059604645 0.4000000059604645
          0.800000011920929 0.4000000059604645 0.4000000059604645 1 0.4000000059604645 0.4000000059604645
          0 0.6000000238418579 0.4000000059604645 0.20000000298023224 0.6000000238418579 0.4000000059604645
          0.4000000059604645 0.6000000238418579 0.4000000059604645 0.6000000238418579 0.6000000238418579 0.4000000059604645
          0.800000011920929 0.6000000238418579 0.4000000059604645 1 0.6000000238418579 0.4000000059604645
          0 0.800000011920929 0.4000000059604645 0.20000000298023224 0.800000011920929 0.4000000059604645
          0.4000000059604645 0.800000011920929 0.4000000059604645 0.6000000238418579 0.800000011920929 0.4000000059604645
          0.800000011920929 0.800000011920929 0.4000000059604645 1 0.800000011920929 0.4000000059604645
          0 1 0.4000000059604645 0.20000000298023224 1 0.4000000059604645
          0.4000000059604645 1 0.4000000059604645 0.6000000238418579 1 0.4000000059604645
          0.800000011920929 1 0.4000000059604645 1 1 0.4000000059604645
          0 0 0.6000000238418579 0.20000000298023224 0 0.6000000238418579
          0.4000000059604645 0 0.6000000238418579 0.6000000238418579 0 0.6000000238418579
          0.800000011920929 0 0.6000000238418579 1 0 0.6000000238418579
          0 0.20000000298023224 0.6000000238418579 0.20000000298023224 0.20000000298023224 0.6000000238418579
          0.4000000059604645 0.20000000298023224 0.6000000238418579 0.6000000238418579 0.20000000298023224 0.6000000238418579
          0.800000011920929 0.20000000298023224 0.6000000238418579 1 0.20000000298023224 0.6000000238418579
          0 0.4000000059604645 0.6000000238418579 0.20000000298023224 0.4000000059604645 0.6000000238418579
          0.4000000059604645 0.4000000059604645 0.6000000238418579 0.6000000238418579 0.4000000059604645 0.6000000238418579
          0.800000011920929 0.4000000059604645 0.6000000238418579 1 0.4000000059604645 0.6000000238418579
          0 0.6000000238418579 0.6000000238418579 0.20000000298023224 0.6000000238418579 0.6000000238418579
          0.4000000059604645 0.6000000238418579 0.6000000238418579 0.6000000238418579 0.6000000238418579 0.6000000238418579
          0.800000011920929 0.6000000238418579 0.6000000238418579 1 0.6000000238418579 0.6000000238418579
          0 0.800000011920929 0.6000000238418579 0.20000000298023224 0.800000011920929 0.6000000238418579
          0.4000000059604645 0.800000011920929 0.6000000238418579 0.6000000238418579 0.800000011920929 0.6000000238418579
          0.800000011920929 0.800000011920929 0.6000000238418579 1 0.800000011920929 0.6000000238418579
          0 1 0.6000000238418579 0.20000000298023224 1 0.6000000238418579
          0.4000000059604645 1 0.6000000238418579 0.6000000238418579 1 0.6000000238418579
          0.800000011920929 1 0.6000000238418579 1 1 0.6000000238418579
          0 0 0.800000011920929 0.20000000298023224 0 0.800000011920929
          0.4000000059604645 0 0.800000011920929 0.6000000238418579 0 0.800000011920929
          0.800000011920929 0 0.800000011920929 1 0 0.800000011920929
          0 0.20000000298023224 0.800000011920929 0.20000000298023224 0.20000000298023224 0.800000011920929
          0.4000000059604645 0.20000000298023224 0.800000011920929 0.6000000238418579 0.20000000298023224 0.800000011920929
          0.800000011920929 0.20000000298023224 0.800000011920929 1 0.20000000298023224 0.800000011920929
          0 0.4000000059604645 0.800000011920929 0.20000000298023224 0.4000000059604645 0.800000011920929
          0.4000000059604645 0.4000000059604645 0.800000011920929 0.6000000238418579 0.4000000059604645 0.800000011920929
          0.800000011920929 0.4000000059604645 0.800000011920929 1 0.4000000059604645 0.800000011920929
          0 0.6000000238418579 0.800000011920929 0.20000000298023224 0.6000000238418579 0.800000011920929
          0.4000000059604645 0.6000000238418579 0.800000011920929 0.6000000238418579 0.6000000238418579 0.800000011920929
          0.800000011920929 0.6000000238418579 0.800000011920929 1 0.6000000238418579 0.800000011920929
          0 0.800000011920929 0.800000011920929 0.20000000298023224 0.800000011920929 0.800000011920929
          0.4000000059604645 0.800000011920929 0.800000011920929 0.6000000238418579 0.800000011920929 0.800000011920929
          0.800000011920929 0.800000011920929 0.800000011920929 1 0.800000011920929 0.800000011920929
          0 1 0.800000011920929 0.20000000298023224 1 0.800000011920929
          0.4000000059604645 1 0.800000011920929 0.6000000238418579 1 0.800000011920929
          0.800000011920929 1 0.800000011920929 1 1 0.800000011920929
          0 0 1 0.20000000298023224 0 1
          0.4000000059604645 0 1 0.6000000238418579 0 1
          0.800000011920929 0 1 1 0 1
          0 0.20000000298023224 1 0.20000000298023224 0.20000000298023224 1
          0.4000000059604645 0.20000000298023224 1 0.6000000238418579 0.20000000298023224 1
          0.800000011920929 0.20000000298023224 1 1 0.20000000298023224 1
          0 0.4000000059604645 1 0.20000000298023224 0.4000000059604645 1
          0.4000000059604645 0.4000000059604645 1 0.6000000238418579 0.4000000059604645 1
          0.800000011920929 0.4000000059604645 1 1 0.4000000059604645 1
          0 0.6000000238418579 1 0.20000000298023224 0.6000000238418579 1
          0.4000000059604645 0.6000000238418579 1 0.6000000238418579 0.6000000238418579 1
          0.800000011920929 0.6000000238418579 1 1 0.6000000238418579 1
          0 0.800000011920929 1 0.20000000298023224 0.800000011920929 1
          0.4000000059604645 0.800000011920929 1 0.6000000238418579 0.800000011920929 1
          0.800000011920929 0.800000011920929 1 1 0.800000011920929 1
          0 1 1 0.20000000298023224 1 1
          0.4000000059604645 1 1 0.6000000238418579 1 1
          0.800000011920929 1 1 1 1 1
          <InformationKey name="L2_NORM_FINITE_RANGE" location="vtkDataArray" length="2">
            <Value index="0">
              0
            </Value>
            <Value index="1">
              1.7320508076
            </Value>
          </InformationKey>
          <InformationKey name="L2_NORM_RANGE" location="vtkDataArray" length="2">
            <Value index="0">
              0
            </Value>
            <Value index="1">
              1.7320508076
            </Value>
          </InformationKey>
        </DataArray>
      </Points>
      <Cells>
        <DataArray type="Int64" IdType="1" Name="connectivity" format="ascii" RangeMin="0" RangeMax="215">
          36 0 42 43 0 36
          37 43 1 0 37 43
          0 1 7 43 6 0
          7 43 0 6 42 43
          37 1 43 44 1 37
          38 44 2 1 38 44
          1 2 8 44 7 1
          8 44 1 7 43 44
          38 2 44 45 2 38
          39 45 3 2 39 45
          2 3 9 45 8 2
          9 45 2 8 44 45
          39 3 45 46 3 39
          40 46 4 3 40 46
          3 4 10 46 9 3
          10 46 3 9 45 46
          40 4 46 47 4 40
          41 47 5 4 41 47
          4 5 11 47 10 4
          11 47 4 10 46 47
          42 6 48 49 6 42
          43 49 7 6 43 49
          6 7 13 49 12 6
          13 49 6 12 48 49
          43 7 49 50 7 43
          44 50 8 7 44 50
          7 8 14 50 13 7
          14 50 7 13 49 50
          44 8 50 51 8 44
          45 51 9 8 45 51
          8 9 15 51 14 8
          15 51 8 14 50 51
          45 9 51 52 9 45
          46 52 10 9 46 52
          9 10 16 52 15 9
          16 52 9 15 51 52
          46 10 52 53 10 46
          47 53 11 10 47 53
          10 11 17 53 16 10
          17 53 10 16 52 53
          48 12 54 55 12 48
          49 55 13 12 49 55
          12 13 19 55 18 12
          19 55 12 18 54 55
          49 13 55 56 13 49
          50 56 14 13 50 56
          13 14 20 56 19 13
          20 56 13 19 55 56
          50 14 56 57 14 50
          51 57 15 14 51 57
          14 15 21 57 20 14
          21 57 14 20 56 57
          51 15 57 58 15 51
          52 58 16 15 52 58
          15 16 22 58 21 15
          22 58 15 21 57 58
          52 16 58 59 16 52
          53 59 17 16 53 59
          16 17 23 59 22 16
          23 59 16 22 58 59
          54 18 60 61 18 54
          55 61 19 18 55 61
          18 19 25 61 24 18
          25 61 18 24 60 61
          55 19 61 62 19 55
          56 62 20 19 56 62
          19 20 26 62 25 19
          26 62 19 25 61 62
          56 20 62 63 20 56
          57 63 21 20 57 63
          20 21 27 63 26 20
          27 63 20 26 62 63
          57 21 63 64 21 57
          58 64 22 21 58 64
          21 22 28 64 27 21
          28 64 21 27 63 64
          58 22 64 65 22 58
          59 65 23 22 59 65
          22 23 29 65 28 22
          29 65 22 28 64 65
          60 24 66 67 24 60
          61 67 25 24 61 67
          24 25 31 67 30 24
          31 67 24 30 66 67
          61 25 67 68 25 61
          62 68 26 25 62 68
          25 26 32 68 31 25
          32 68 25 31 67 68
          62 26 68 69 26 62
          63 69 27 26 63 69
          26 27 33 69 32 26
          33 69 26 32 68 69
          63 27 69 70 27 63
          64 70 28 27 64 70
          27 28 34 70 33 27
          34 70 27 33 69 70
          64 28 70 71 28 64
          65 71 29 28 65 71
          28 29 35 71 34 28
          35 71 28 34 70 71
          72 36 78 79 36 72
          73 79 37 36 73 79
          36 37 43 79 42 36
          43 79 36 42 78 79
          73 37 79 80 37 73
          74 80 38 37 74 80
          37 38 44 80 43 37
          44 80 37 43 79 80
          74 38 80 81 38 74
          75 81 39 38 75 81
          38 39 45 81 44 38
          45 81 38 44 80 81
          75 39 81 82 39 75
          76 82 40 39 76 82
          39 40 46 82 45 39
          46 82 39 45 81 82
          76 40 82 83 40 76
          77 83 41 40 77 83
          40 41 47 83 46 40
          47 83 40 46 82 83
          78 42 84 85 42 78
          79 85 43 42 79 85
          42 43 49 85 48 42
          49 85 42 48 84 85
          79 43 85 86 43 79
          80 86 44 43 80 86
          43 44 50 86 49 43
          50 86 43 49 85 86
          80 44 86 87 44 80
          81 87 45 44 81 87
          44 45 51 87 50 44
          51 87 44 50 86 87
          81 45 87 88 45 81
          82 88 46 45 82 88
          45 46 52 88 51 45
          52 88 45 51 87 88
          82 46 88 89 46 82
          83 89 47 46 83 89
          46 47 53 89 52 46
          53 89 46 52 88 89
          84 48 90 91 48 84
          85 91 49 48 85 91
          48 49 55 91 54 48
          55 91 48 54 90 91
          85 49 91 92 49 85
          86 92 50 49 86 92
          49 50 56 92 55 49
          56 92 49 55 91 92
          86 50 92 93 50 86
          87 93 51 50 87 93
          50 51 57 93 56 50
          57 93 50 56 92 93
          87 51 93 94 51 87
          88 94 52 51 88 94
          51 52 58 94 57 51
          58 94 51 57 93 94
          88 52 94 95 52 88