/*--------------------------------*- C++ -*----------------------------------*\
| =========                 |                                                 |
| \\      /  F ield         | OpenFOAM: The Open Source CFD Toolbox           |
|  \\    /   O peration     | Version:  v1806                                 |
|   \\  /    A nd           | Web:      www.OpenFOAM.com                      |
|    \\/     M anipulation  |                                                 |
\*---------------------------------------------------------------------------*/
FoamFile
{
    version     2.0;
    format      ascii;
    class       volScalarField;
    location    "228";
    object      p;
}
// * * * * * * * * * * * * * * * * * * * * * * * * * * * * * * * * * * * * * //

dimensions      [0 2 -2 0 0 0 0];


internalField   nonuniform List<scalar> 
10720
(
1910.91
1896.04
1834.38
1717.14
1548.94
1331.64
1080.2
806.171
517.034
229.252
-51.3935
-319.632
-570.68
-802.24
-1011.61
-1194.93
-1352.92
-1479.37
-1576.05
-1636.23
-1662.43
-1650.84
-1607.8
-1535.08
-1447.35
-1368.34
-1296.1
-1216.55
-1129.4
-1036.44
-937.68
-833.234
-723.207
-607.218
-484.51
-350.817
-201.599
-7.7209
243.237
1896.09
1842.73
1730.09
1554.18
1315.81
1018.68
683.441
349.627
54.6361
-193.862
-382.095
-507.122
-589.106
-640.229
-666.788
-684.874
-697.064
-709.423
-724.06
-745.274
-771.335
-803.877
-840.254
-875.389
-891.848
-882.462
-858.845
-825.177
-781.733
-728.316
-665.812
-595.154
-516.945
-430.922
-336.433
-229.828
-105.766
60.9191
297.011
1815.04
1801.35
1750.51
1660.58
1532.34
1365.27
1165.13
939.133
693.918
438.936
181.288
-72.9746
-318.3
-550.352
-765.128
-958.729
-1129.12
-1271.6
-1385.14
-1465.36
-1512.18
-1521.95
-1499.51
-1448.39
-1381.2
-1316.57
-1253.92
-1182.4
-1101.81
-1014.17
-919.828
-819.025
-711.987
-598.42
-477.611
-345.37
-197.287
-4.16609
240.705
1799.72
1754.86
1669.69
1539.58
1364.55
1145.83
894.584
632.101
379.708
150.399
-44.5768
-199.915
-321.063
-413.623
-482.142
-535.527
-577.867
-613.985
-647.191
-681.378
-716.79
-754.87
-793.941
-829.551
-848.352
-844.221
-825.723
-796.795
-757.709
-708.31
-649.407
-581.884
-506.321
-422.488
-329.737
-224.466
-101.471
64.5167
294.225
1696.62
1686.63
1646.21
1573.03
1466.41
1323.84
1148.69
946.558
722.883
484.999
240.51
-4.32713
-243.576
-472.117
-685.459
-879.679
-1051.53
-1197.26
-1314.56
-1400.18
-1452.45
-1469.66
-1455.17
-1413.16
-1353.96
-1292.91
-1231.92
-1162.93
-1085
-999.851
-907.862
-809.177
-703.979
-591.963
-472.397
-341.133
-193.838
-1.89132
236.935
1683.68
1647.21
1577.34
1469.13
1322.41
1136.1
916.858
680.131
443.47
220.954
23.2137
-142.175
-274.594
-377.606
-455.528
-514.739
-560.81
-598.659
-632.308
-665.473
-699.495
-735.385
-771.867
-804.961
-824.139
-823.1
-807.321
-780.687
-743.694
-696.282
-639.208
-573.335
-499.217
-416.636
-324.907
-220.454
-98.147
66.756
289.877
1572.74
1565.01
1531.81
1471.14
1382.66
1263.15
1114.89
941.718
747.068
536.529
316.155
91.3254
-132.415
-350.01
-556.69
-748.166
-920.554
-1070.04
-1193.43
-1287.57
-1350.24
-1380.4
-1379.9
-1352.38
-1306.06
-1253.77
-1198.98
-1135.77
-1062.78
-981.698
-893.138
-797.325
-694.509
-584.451
-466.448
-336.442
-190.236
-0.079852
232.522
1561.62
1531.31
1473.33
1383.53
1262.34
1107.76
924.256
723.982
520.021
322.997
142.135
-15.7277
-148.682
-258.067
-346.505
-418.001
-476.773
-526.633
-570.926
-612.688
-653.46
-694.027
-733.445
-768.294
-790.384
-793.78
-782.059
-758.991
-725.261
-680.84
-626.423
-562.858
-490.703
-409.77
-319.376
-216.007
-94.6824
68.5673
284.693
1453.28
1446.97
1419.07
1367.74
1292.81
1190.64
1062.76
911.916
740.104
551.664
351.368
143.779
-65.9482
-272.902
-472.297
-659.596
-830.526
-981.084
-1107.63
-1207.02
-1276.73
-1315.4
-1324.16
-1306.16
-1268.64
-1222.36
-1171.54
-1112.08
-1042.55
-964.488
-878.669
-785.321
-684.675
-576.494
-460.068
-331.4
-186.461
1.53629
227.448
1443.79
1418.38
1369.56
1293.54
1190.98
1059.34
901.553
727.376
547.016
368.623
200.127
47.89
-85.3022
-199.035
-294.284
-373.252
-439.007
-494.663
-543.243
-587.556
-629.467
-669.902
-708.275
-741.795
-764.023
-769.606
-760.425
-739.76
-708.374
-666.241
-613.975
-552.377
-481.978
-402.593
-313.516
-211.279
-91.0878
70.1614
278.834
1341.07
1335.57
1311.46
1267.1
1202.64
1114.33
1003.37
871.841
720.767
553.475
373.627
184.829
-8.44428
-201.742
-390.598
-570.521
-737.087
-886.211
-1013.98
-1117.06
-1192.67
-1239.29
-1257.54
-1250.05
-1222.63
-1184.06
-1138.8
-1084.34
-1019.35
-945.191
-862.758
-772.33
-674.167
-568.072
-453.366
-326.167
-182.667
2.78246
221.662
1333.03
1311.5
1269.96
1204.9
1117.23
1004.21
867.891
716.479
558.303
399.566
246.887
105.828
-20.9593
-132.411
-228.621
-310.793
-381.022
-441.638
-495.075
-543.637
-589
-631.961
-672.026
-706.77
-731.01
-740.052
-734.597
-717.314
-689.05
-649.83
-600.207
-540.954
-472.591
-394.954
-307.346
-206.375
-87.4879
71.3847
272.293
1237.21
1232.14
1210.83
1171.8
1115.46
1038.16
940.83
825.183
691.55
542.539
380.912
209.419
31.8563
-147.903
-325.791
-497.479
-658.616
-805.05
-932.718
-1038.14
-1118.34
-1171.57
-1197.83
-1199.09
-1180.13
-1148.22
-1107.81
-1057.69
-996.738
-926.126
-846.819
-759.157
-663.406
-559.387
-446.439
-320.793
-178.881
3.65018
215.271
1230.49
1212.15
1176.48
1120.22
1044.42
946.278
827.233
694.357
554.622
412.777
274.281
143.948
24.0461
-84.1363
-180.088
-264.23
-337.776
-402.209
-459.325
-510.917
-558.433
-602.593
-643.066
-677.872
-702.936
-714.146
-711.345
-696.59
-670.785
-633.993
-586.681
-529.556
-463.104
-387.162
-301.023
-201.38
-83.9295
72.2075
265.2
1141.63
1136.74
1117.54
1082.64
1032.73
964.28
878.131
775.737
657.036
524.067
378.952
223.726
61.4921
-104.471
-270.56
-432.798
-587.021
-729.138
-855.077
-961.275
-1044.59
-1103.03
-1136.2
-1145.5
-1134.67
-1109.6
-1074.5
-1029.09
-972.513
-905.76
-829.846
-745.176
-652.028
-550.246
-439.205
-315.265
-175.12
4.14162
208.382
1136.11
1120.41
1089.58
1040.54
974.406
888.452
783.704
666.383
542.47
415.702
290.621
171.359
59.7549
-42.9636
-136.038
-219.487
-293.895
-360.148
-419.494
-473.268
-522.62
-568.132
-609.515
-645.086
-671.488
-685.175
-685.427
-673.675
-650.765
-616.777
-572.089
-517.347
-453.012
-378.931
-294.409
-196.244
-80.4128
72.6377
257.679
1053.9
1049.06
1031.46
999.847
955.078
893.85
816.919
725.603
619.576
500.491
369.981
229.496
81.5556
-71.1234
-225.457
-377.858
-524.449
-661.318
-784.476
-890.336
-975.642
-1038.2
-1077.18
-1093.48
-1089.87
-1071.15
-1041.14
-1000.25
-947.902
-884.944
-812.401
-730.739
-640.241
-540.77
-431.727
-309.627
-171.427
4.2321
201.025
1049.45
1036
1009.2
966.159
908.008
832.142
739.295
634.998
524.522
410.853
297.807
188.94
85.6654
-10.971
-100.168
-181.744
-255.872
-322.951
-383.755
-439.148
-489.934
-536.508
-578.585
-614.717
-642.155
-657.825
-660.65
-651.495
-631.135
-599.68
-557.434
-504.966
-442.704
-370.49
-287.631
-191.043
-76.9943
72.6513
249.768
973.41
968.525
952.188
923.228
882.669
827.396
758.142
676.153
580.948
473.901
356.278
229.099
94.4006
-45.6458
-188.432
-330.774
-469.188
-599.999
-719.379
-823.771
-909.901
-975.404
-1019.08
-1041.41
-1044.34
-1031.66
-1006.74
-970.4
-922.342
-863.281
-794.221
-715.677
-627.941
-530.896
-423.978
-303.872
-167.815
3.90671
193.219
969.926
958.388
935.003
897.005
845.532
778.13
695.312
602.058
503.077
400.826
298.553
199.363
104.303
14.1825
-70.2528
-148.76
-221.29
-287.925
-349.054
-405.171
-456.763
-504.031
-546.655
-583.359
-611.809
-629.334
-634.665
-628.173
-610.481
-581.692
-542.029
-491.974
-431.91
-361.683
-280.611
-185.746
-73.6704
72.2501
241.489
899.538
894.572
879.245
852.459
815.384
765.098
702.314
628.228
542.291
445.681
339.394
224.118
101.489
-26.755
-158.455
-290.874
-420.897
-545.153
-660.027
-762.086
-848.077
-915.517
-962.912
-990.331
-999.02
-991.919
-971.892
-939.988
-896.146
-840.975
-775.429
-700.059
-615.165
-520.644
-415.968
-298.009
-164.301
3.1675
184.978
896.909
887.015
866.54
832.839
787.023
726.789
652.502
568.673
479.565
387.246
294.538
204.172
116.895
33.2944
-45.9849
-120.748
-190.861
-256.194
-316.872
-373.075
-425.01
-472.678
-515.697
-552.897
-582.243
-601.391
-608.969
-604.939
-589.751
-563.501
-526.342
-478.666
-420.81
-352.611
-273.404
-180.386
-70.4655
71.439
232.871
831.676
826.611
812.115
787.153
753.007
706.938
649.661
582.336
504.385
416.849
320.533
215.878
104.205
-13.1287
-134.348
-257.117
-378.722
-496.116
-605.945
-704.939
-789.919
-858.345
-908.498
-940.083
-953.805
-951.813
-936.479
-908.92
-869.245
-817.975
-755.992
-683.865
-601.899
-510.007
-407.698
-292.049
-160.897
2.01813
176.334
829.806
821.341
803.365
773.348
732.371
678.272
611.304
535.582
455.01
371.368
287.135
204.743
124.728
47.4861
-26.4812
-97.0547
-164.095
-227.38
-286.851
-342.469
-394.201
-441.874
-485.04
-522.586
-552.685
-573.242
-582.859
-581.183
-568.46
-544.746
-510.12
-464.881
-409.305
-343.223
-265.987
-174.962
-67.3868
70.2321
223.942
769.267
764.103
750.299
726.891
695.243
652.793
600.249
538.749
467.724
388.103
300.563
205.366
103.581
-3.73246
-115.148
-228.695
-342.03
-452.44
-556.862
-652.231
-735.489
-804.078
-856.128
-891.014
-909.033
-911.637
-900.721
-877.354
-841.747
-794.348
-735.948
-667.114
-588.155
-498.991
-399.176
-286.001
-157.612
0.474282
167.319
768.068
760.847
745.031
718.197
681.397
632.592
571.95
503.258
430.11
354.067
277.338
202.124
128.804
57.6067
-11.0929
-77.2781
-140.843
-201.536
-259.21
-313.686
-364.754
-412.088
-455.167
-492.902
-523.607
-545.376
-556.809
-557.322
-546.943
-525.679
-493.541
-450.731
-397.463
-333.557
-258.387
-169.49
-64.4472
68.6394
214.737
711.807
706.55
693.339
671.27
641.784
602.473
554.034
497.598
432.613
359.928
280.13
193.353
100.47
2.30585
-100.018
-204.852
-310.177
-413.62
-512.414
-603.725
-684.659
-752.688
-805.847
-843.228
-864.832
-871.51
-864.706
-845.35
-813.7
-770.126
-715.316
-649.819
-573.937
-487.601
-390.407
-279.873
-154.459
-1.44564
157.969
711.192
705.057
691.123
667.061
633.887
589.686
534.562
471.999
405.343
335.978
265.909
197.143
129.942
64.4148
0.822937
-60.9141
-120.757
-178.475
-233.888
-286.743
-336.708
-383.349
-426.072
-463.8
-494.931
-517.698
-530.719
-533.252
-525.112
-506.231
-476.554
-436.185
-385.269
-323.61
-250.605
-163.98
-61.6551
66.6851
205.29
658.839
653.498
640.806
619.915
592.325
555.76
510.918
458.918
399.235
332.662
259.718
180.446
95.5655
5.70821
-88.2314
-184.889
-282.549
-379.152
-472.236
-559.207
-637.343
-704.196
-757.762
-796.906
-821.404
-831.625
-828.583
-813.023
-785.185
-745.363
-694.132
-632.001
-559.26
-475.847
-381.4
-273.674
-151.44
-3.72395
148.33
658.736
653.545
641.257
619.627
589.624
549.453
499.169
441.993
381.043
317.579
253.432
190.453
128.82
68.5556
9.83471
-47.5177
-103.531
-158.034
-210.856
-261.708
-310.198
-355.815
-397.919
-435.435
-466.811
-490.369
-504.756
-509.125
-503.092
-486.503
-459.234
-421.294
-372.755
-313.401
-242.657
-158.445
-59.0195
64.3869
195.643
609.95
604.541
592.316
572.481
546.569
512.428
470.766
422.684
367.684
306.521
239.659
167.083
89.3975
7.08432
-79.1563
-168.197
-258.595
-348.573
-435.96
-518.404
-593.387
-658.558
-711.914
-752.164
-778.901
-792.14
-792.489
-780.478
-756.285
-720.117
-672.435
-613.686
-544.141
-463.74
-372.165
-267.415
-148.565
-6.33226
138.447
610.302
605.936
595.087
575.601
548.389
511.77
465.757
413.34
357.439
299.211
240.342
182.559
125.985
70.5799
16.443
-36.6677
-88.8577
-140.016
-190.016
-238.572
-285.273
-329.574
-370.802
-407.888
-439.304
-463.443
-478.974
-484.986
-480.919
-466.523
-441.602
-406.075
-359.935
-302.945
-234.557
-152.895
-56.5449
61.7737
185.834
564.785
559.327
547.527
528.647
504.232
472.256
433.425
388.824
337.985
281.632
220.19
153.609
82.3971
6.92281
-72.2723
-154.259
-237.827
-321.456
-403.238
-481.069
-552.635
-615.714
-668.333
-709.102
-737.469
-753.211
-756.565
-747.829
-727.09
-694.458
-650.273
-594.907
-528.601
-451.297
-362.715
-261.105
-145.833
-9.24146
128.364
565.531
561.892
552.31
534.72
509.975
476.502
434.282
386.092
334.679
281.115
226.971
173.863
121.881
70.9373
21.0849
-27.9814
-76.425
-124.204
-171.244
-217.295
-261.958
-304.686
-344.804
-381.249
-412.509
-437.017
-453.471
-460.928
-458.672
-446.357
-423.712
-390.567
-346.838
-292.263
-226.321
-147.344
-54.2332
58.8739
175.905
523.021
517.53
506.126
488.115
465.054
435.028
398.737
357.248
310.131
258.077
201.485
140.278
74.8939
5.61002
-67.1485
-142.62
-219.802
-297.387
-373.721
-446.928
-514.907
-575.571
-627.01
-667.791
-697.234
-714.985
-720.946
-715.192
-697.696
-668.46
-627.7
-575.703
-512.668
-438.535
-353.064
-254.75
-143.243
-12.4166
118.138
524.105
521.102
512.642
496.738
474.187
443.514
404.679
360.267
312.864
263.477
213.574
164.681
116.861
70.0055
24.1276
-21.1163
-65.9476
-110.383
-154.403
-197.815
-240.256
-281.199
-319.991
-355.589
-386.493
-411.165
-428.329
-437.026
-436.42
-426.063
-405.61
-374.806
-333.491
-281.375
-217.967
-141.801
-52.0856
55.7229
165.906
484.364
478.861
467.83
450.622
428.795
400.537
366.54
327.855
284.083
235.889
183.65
127.276
67.1483
3.47995
-63.4048
-132.879
-204.111
-275.991
-347.082
-415.725
-480.02
-538.029
-587.93
-628.278
-658.304
-677.591
-685.766
-682.689
-668.204
-642.203
-604.777
-556.118
-496.373
-425.477
-343.228
-248.361
-140.792
-15.8199
107.82
485.74
483.296
475.832
461.431
440.837
412.673
376.874
335.854
292.053
246.422
200.342
155.256
111.216
68.1007
25.8951
-15.7686
-57.1539
-98.3327
-139.34
-180.044
-220.135
-259.132
-296.417
-330.976
-361.328
-385.966
-403.632
-413.365
-414.239
-405.708
-387.351
-358.837
-319.93
-270.309
-209.512
-136.278
-50.0973
52.3551
155.886
448.559
443.065
432.388
415.927
395.234
368.588
336.677
300.531
259.781
215.068
166.755
114.741
59.369
0.796576
-60.732
-124.697
-190.411
-256.934
-323.018
-387.202
-447.783
-502.973
-551.05
-590.589
-620.768
-641.148
-651.151
-650.438
-638.718
-615.774
-581.572
-536.202
-479.754
-412.15
-333.224
-241.943
-138.471
-19.4108
97.4678
450.183
448.233
441.655
428.598
409.757
383.848
350.785
312.826
272.277
230.039
187.414
145.78
105.18
65.4844
26.6621
-11.6684
-49.7974
-87.8428
-125.893
-163.879
-201.549
-238.478
-274.102
-307.453
-337.077
-361.488
-379.456
-390.022
-392.204
-385.358
-368.994
-342.708
-306.19
-259.093
-200.978
-130.784
-48.2629
48.8095
145.891
415.378
409.907
399.571
383.81
364.165
339.001
308.998
275.165
237.157
195.598
150.835
102.766
51.6967
-2.2497
-58.8897
-117.8
-178.405
-239.91
-301.24
-361.111
-418
-470.269
-516.303
-554.724
-584.691
-605.756
-617.219
-618.556
-609.345
-589.263
-558.158
-516.013
-462.852
-398.583
-323.072
-235.503
-136.268
-23.144
87.1388
417.212
415.693
409.903
398.052
380.791
356.917
326.332
291.146
253.542
214.381
174.895
136.395
98.9271
62.358
26.6494
-8.58565
-43.6575
-78.7174
-113.903
-149.204
-184.427
-219.213
-253.057
-285.056
-313.789
-337.795
-355.877
-367.079
-370.392
-365.085
-350.601
-326.469
-292.314
-247.757
-192.387
-125.328
-46.5729
45.1277
135.972
384.611
379.178
369.17
354.072
335.403
311.606
283.36
251.64
216.136
177.445
135.906
91.4145
44.2527
-5.4872
-57.6698
-111.939
-167.825
-224.651
-281.492
-337.223
-390.484
-439.784
-483.62
-520.672
-550.116
-571.503
-584.078
-587.154
-580.19
-562.767
-534.614
-495.612
-445.714
-384.811
-312.791
-229.047
-134.17
-26.9719
76.8944
386.62
385.48
380.391
369.626
353.794
331.764
303.43
270.768
235.846
199.487
162.86
127.217
92.6061
58.9011
26.0557
-6.31538
-38.5319
-70.7741
-103.218
-135.9
-168.688
-201.293
-233.278
-263.806
-291.502
-314.941
-332.959
-344.609
-348.879
-344.96
-332.235
-310.176
-278.346
-236.337
-183.761
-119.918
-45.0165
41.3495
126.18
356.068
350.69
341
326.533
308.775
286.249
259.624
229.848
196.634
160.565
121.963
80.7296
37.1231
-8.78548
-56.8974
-106.914
-158.446
-210.923
-263.542
-315.323
-365.052
-411.376
-452.912
-488.407
-517.068
-538.458
-551.821
-556.336
-551.36
-536.38
-511.023
-475.066
-428.392
-370.867
-302.404
-222.578
-132.16
-30.8506
66.7905
358.222
357.419
352.952
343.169
328.631
308.28
281.999
251.641
219.171
185.373
151.362
118.331
86.3337
55.2497
25.034
-4.69247
-34.254
-63.852
-93.6903
-123.845
-154.245
-184.665
-214.741
-243.707
-270.247
-292.973
-310.762
-322.685
-327.739
-325.055
-313.965
-293.887
-264.333
-224.867
-175.123
-114.562
-43.5779
37.5181
116.565
329.581
324.269
314.892
301.027
284.125
262.784
237.664
209.681
178.575
144.906
108.989
70.7275
30.364
-12.0466
-56.4357
-102.553
-150.074
-198.51
-247.174
-295.204
-341.525
-384.908
-424.086
-457.885
-485.552
-506.676
-520.534
-526.204
-522.958
-510.201
-487.47
-454.446
-410.942
-356.795
-291.933
-216.102
-130.216
-34.729
56.8875
331.854
331.344
327.437
318.543
305.181
286.359
261.958
233.715
203.493
172.046
140.434
109.798
80.1957
51.5165
23.7167
-3.57181
-30.672
-57.7987
-85.1769
-112.919
-141.001
-169.262
-197.408
-224.751
-250.036
-271.926
-289.34
-301.371
-307.043
-305.442
-295.857
-277.664
-250.326
-213.386
-166.498
-109.266
-42.2412
33.6756
107.174
304.996
299.761
290.693
277.401
261.306
241.078
217.357
191.036
161.875
130.414
96.9597
61.4197
24.0204
-15.1954
-56.1765
-98.7147
-142.54
-187.232
-232.2
-276.686
-319.739
-360.246
-397.047
-429.051
-455.559
-476.193
-490.282
-496.841
-495.076
-484.325
-464.041
-433.828
-393.422
-342.633
-281.404
-209.62
-128.319
-38.5592
47.2418
307.366
307.112
303.704
295.618
283.328
265.907
243.232
216.935
188.782
159.498
130.095
101.661
74.2602
47.7918
22.2138
-2.83104
-27.6569
-52.4859
-77.5555
-103.009
-128.866
-155.02
-181.242
-206.92
-230.878
-251.825
-268.735
-280.725
-286.857
-286.191
-277.979
-261.566
-236.378
-201.936
-157.91
-104.036
-40.9882
29.8634
98.0543
282.172
277.025
268.261
255.519
240.188
221.004
198.592
173.816
146.456
117.032
85.8417
52.7993
18.1171
-18.1729
-56.0312
-95.2831
-135.702
-176.93
-218.45
-259.602
-299.539
-337.257
-371.696
-401.848
-427.075
-447.036
-461.125
-468.327
-467.805
-458.841
-440.827
-413.285
-375.893
-328.43
-270.838
-203.137
-126.441
-42.2927
37.9083
284.618
284.588
281.627
274.274
262.965
246.83
225.747
201.246
175.004
147.72
120.355
93.9511
68.5767
44.1397
20.604
-2.37286
-25.0994
-47.7962
-70.7111
-94.0077
-117.744
-141.859
-166.188
-190.192
-212.767
-232.688
-248.984
-260.801
-267.246
-267.368
-260.399
-245.657
-222.54
-190.554
-149.386
-98.8749
-39.8005
26.1219
89.2494
260.983
255.932
247.466
235.254
220.649
202.448
181.262
157.928
132.239
104.702
75.5987
44.854
12.6652
-20.9378
-55.9322
-92.1647
-129.445
-167.466
-205.778
-243.802
-280.781
-315.812
-347.93
-376.206
-400.064
-419.213
-433.105
-440.732
-441.227
-433.84
-417.91
-392.897
-358.419
-314.227
-260.269
-196.652
-124.561
-45.8889
28.9379
263.483
263.649
261.09
254.405
243.995
229.045
209.432
186.594
162.123
136.69
111.213
86.6865
63.1826
40.6185
18.9614
-2.11252
-22.9015
-43.627
-64.5377
-85.8162
-107.544
-129.705
-152.189
-174.525
-195.69
-214.524
-230.112
-241.642
-248.265
-249.038
-243.182
-229.999
-208.867
-179.284
-140.949
-93.7891
-38.6569
22.4861
80.7991
241.309
236.363
228.189
216.488
202.573
185.302
165.27
143.283
119.151
93.3627
66.1905
37.5626
7.67098
-23.4649
-55.8249
-89.2804
-123.669
-158.724
-194.053
-229.148
-263.334
-295.793
-325.653
-352.056
-374.492
-392.72
-406.25
-414.11
-415.419
-409.405
-395.374
-372.738
-341.066
-300.075
-249.716
-190.172
-122.656
-49.3007
20.3755
243.848
244.186
241.988
235.912
226.327
212.471
194.22
172.926
150.1
126.387
102.662
79.875
58.1006
37.2659
17.3405
-1.98251
-20.9894
-39.8953
-58.9503
-78.3445
-98.1832
-118.485
-139.186
-159.883
-179.628
-197.332
-212.14
-223.283
-229.964
-231.258
-226.39
-214.652
-195.413
-168.167
-132.623
-88.7825
-37.5404
18.9957
72.7396
223.044
218.209
210.322
199.115
185.86
169.468
150.524
129.798
107.12
82.9577
57.5751
30.9051
3.12947
-25.7316
-55.6695
-86.5682
-118.29
-150.603
-183.164
-215.521
-247.075
-277.089
-304.766
-329.328
-350.316
-367.546
-380.583
-388.508
-390.444
-385.614
-373.301
-352.886
-323.894
-286.023
-239.21
-183.695
-120.696
-52.4916
12.2646
225.607
226.093
224.219
218.701
209.877
197.032
180.046
160.189
138.895
116.784
94.6905
73.5175
53.3448
34.1069
15.7788
-1.93153
-19.296
-36.5257
-53.8645
-71.5089
-89.58
-108.125
-127.117
-146.217
-164.552
-181.105
-195.077
-205.753
-212.386
-214.083
-210.08
-199.674
-182.23
-157.243
-124.436
-83.8584
-36.4274
15.6791
65.102
206.089
201.37
193.766
183.036
170.41
154.854
136.935
117.396
96.0782
73.4325
49.711
24.854
-0.965247
-27.7306
-55.4349
-83.9781
-113.241
-143.018
-173.012
-202.818
-231.902
-259.596
-285.182
-307.945
-327.485
-343.669
-356.108
-363.959
-366.357
-362.532
-351.764
-333.411
-306.97
-272.115
-228.777
-177.226
-118.665
-55.4226
4.64337
208.663
209.276
207.693
202.688
194.564
182.658
166.849
148.333
128.47
107.854
87.2802
67.6101
48.9242
31.1642
14.3091
-1.9161
-17.7705
-33.4559
-49.2125
-65.2374
-81.6615
-98.5539
-115.923
-133.482
-150.431
-165.825
-178.926
-189.071
-195.565
-197.558
-194.306
-185.119
-169.368
-146.552
-116.408
-79.0204
-35.3041
12.5663
57.9109
190.353
185.754
178.428
168.16
156.135
141.373
124.425
106.002
85.9591
64.7287
42.5545
19.3794
-4.62971
-29.4575
-55.1016
-81.4711
-108.464
-135.9
-163.512
-190.942
-217.713
-243.219
-266.81
-287.837
-305.947
-321.056
-332.826
-340.487
-343.201
-340.22
-330.829
-314.381
-290.353
-258.401
-218.444
-170.769
-116.54
-58.0649
-2.45932
192.925
193.649
192.328
187.792
180.317
169.282
154.571
137.308
118.782
99.565
80.4122
62.1427
44.8387
28.4486
12.9536
-1.90399
-16.3695
-30.6366
-44.9364
-59.4651
-74.3612
-89.7089
-105.545
-121.629
-137.23
-151.473
-163.684
-173.25
-179.528
-181.724
-179.117
-171.037
-156.873
-136.134
-108.563
-74.2724
-34.1528
9.68078
51.187
175.75
171.276
164.223
154.401
142.952
128.947
112.917
95.5459
76.6998
56.7939
36.0608
14.4502
-7.8803
-30.9151
-54.6558
-79.0194
-103.916
-129.185
-154.591
-179.814
-204.423
-227.873
-249.571
-268.931
-285.648
-299.676
-310.726
-318.104
-321.012
-318.728
-310.559
-295.86
-274.1
-244.925
-208.239
-164.331
-114.303
-60.3916
-9.02004
178.313
179.13
178.044
173.939
167.065
156.841
143.156
127.066
109.793
91.8858
74.0622
57.101
41.0831
25.963
11.7259
-1.87082
-15.0589
-28.0231
-40.9852
-54.1366
-67.6191
-81.5292
-95.9242
-110.606
-124.908
-138.025
-149.34
-158.294
-164.297
-166.612
-164.551
-157.474
-144.787
-126.02
-100.924
-69.6192
-32.9591
7.04326
44.9456
162.204
157.856
151.071
141.681
130.785
117.5
102.341
85.9634
68.2431
49.5782
30.1906
10.0357
-10.7362
-32.1115
-54.0904
-76.5998
-99.5582
-122.825
-146.188
-169.361
-191.955
-213.478
-233.39
-251.164
-266.533
-279.49
-289.792
-296.816
-299.813
-298.098
-291.005
-277.904
-258.266
-231.729
-198.188
-157.914
-111.942
-62.3809
-15.0189
164.747
165.644
164.77
161.062
154.743
145.275
132.55
117.56
101.464
84.7847
68.2066
52.4677
37.6484
23.7082
10.6345
-1.80023
-13.8145
-25.5827
-37.3176
-49.2036
-61.3832
-73.9612
-87.0099
-100.367
-113.426
-125.45
-135.877
-144.204
-149.885
-152.249
-150.645
-144.467
-133.152
-116.245
-93.5098
-65.0652
-31.7143
4.66725
39.195
149.64
145.421
138.899
129.927
119.56
106.962
92.6309
77.1918
60.5322
43.0315
24.9024
6.1048
-13.2181
-33.0538
-53.4028
-74.1966
-95.3647
-116.781
-138.252
-159.523
-180.241
-199.963
-218.197
-234.466
-248.546
-260.458
-269.999
-276.618
-279.619
-278.361
-272.211
-260.562
-242.898
-218.855
-188.315
-151.529
-109.444
-64.0174
-20.4466
152.157
153.122
152.438
149.095
143.292
134.53
122.705
108.747
93.7555
78.2301
62.8209
48.2256
34.5245
21.6806
9.68373
-1.68056
-12.6156
-23.2874
-33.8975
-44.6236
-55.6054
-66.9535
-78.7508
-90.8644
-102.746
-113.719
-123.277
-130.968
-136.295
-138.65
-137.425
-132.052
-122
-106.838
-86.3393
-60.6179
-30.4097
2.56364
33.9366
137.993
133.904
127.64
119.072
109.213
97.2708
83.725
69.1743
53.5134
37.1062
20.1552
2.62432
-15.3506
-33.756
-52.5935
-71.8004
-91.312
-111.016
-130.737
-150.245
-169.222
-187.264
-203.927
-218.781
-231.633
-242.535
-251.32
-257.502
-260.439
-259.539
-254.211
-243.877
-228.039
-206.339
-178.646
-145.184
-106.806
-65.2934
-25.298
140.477
141.497
140.985
137.978
132.656
124.553
113.57
100.584
86.6305
72.1901
57.8779
44.3538
31.6957
19.8711
8.87049
-1.50558
-11.4494
-21.1168
-30.6975
-40.3622
-50.2469
-60.4628
-71.1007
-82.0536
-92.8254
-102.797
-111.515
-118.574
-123.528
-125.827
-124.911
-120.253
-111.359
-97.8233
-79.43
-56.2805
-29.0422
0.737167
29.169
127.199
123.241
117.229
109.052
99.6807
88.3644
75.5661
61.856
47.1371
31.7579
15.9113
-0.436601
-17.1554
-34.2322
-51.6677
-69.4046
-87.3841
-105.504
-123.606
-141.481
-158.843
-175.324
-190.522
-204.048
-215.743
-225.678
-233.723
-239.447
-242.27
-241.646
-237.031
-227.883
-213.726
-194.212
-169.204
-138.889
-104.025
-66.2038
-29.5755
129.645
130.711
130.352
127.655
122.78
115.293
105.102
93.0285
80.0526
66.6323
53.3509
40.8299
29.146
18.2693
8.19131
-1.27412
-10.3074
-19.055
-27.6952
-36.3904
-45.271
-54.4484
-64.0174
-73.8921
-83.6238
-92.6503
-100.564
-107.006
-111.575
-113.782
-113.115
-109.089
-101.25
-89.2212
-72.7965
-52.0613
-27.6088
-0.812859
24.8838
117.201
113.374
107.608
99.8085
90.9053
80.1867
68.0989
55.185
41.3558
26.9439
12.1328
-3.10864
-18.6559
-34.4967
-50.6311
-67.0064
-83.5677
-100.222
-116.827
-133.194
-149.06
-164.09
-177.926
-190.215
-200.824
-209.842
-217.169
-222.431
-225.102
-224.688
-220.688
-212.604
-199.987
-182.504
-160.01
-132.656
-101.104
-66.7515
-33.2867
119.603
120.706
120.485
118.075
113.614
106.704
97.2564
86.0417
73.9858
61.5258
49.2126
37.6324
26.858
16.8633
7.63985
-0.986595
-9.18401
-17.0899
-24.8717
-32.6824
-40.6471
-48.875
-57.4619
-66.3399
-75.1036
-83.2426
-90.3939
-96.2396
-100.424
-102.512
-102.042
-98.5736
-91.6907
-81.0484
-66.4515
-47.9669
-26.1133
-2.08921
21.0683
107.943
104.248
98.7221
91.2871
82.833
72.6852
61.2731
49.1137
36.1255
22.6242
8.78408
-5.42216
-19.8765
-34.5664
-49.493
-64.6051
-79.8541
-95.1545
-110.376
-125.346
-139.829
-153.519
-166.091
-177.23
-186.825
-194.982
-201.625
-206.428
-208.921
-208.66
-205.192
-198.059
-186.846
-171.237
-151.082
-126.499
-98.0489
-66.9433
-36.4449
110.298
111.43
111.333
109.186
105.113
98.7425
89.9927
79.5863
68.3967
56.84
45.4369
34.7384
24.8139
15.6392
7.20699
-0.646042
-8.07681
-15.2131
-22.2125
-29.218
-36.3492
-43.7108
-51.3988
-59.3596
-67.2271
-74.5392
-80.9729
-86.2504
-90.0566
-92.0077
-91.6915
-88.7109
-82.691
-73.317
-60.4054
-44.0052
-24.5605
-3.1025
17.7047
99.3757
95.8103
90.5189
83.4366
75.413
65.8106
55.0413
43.5976
31.4034
18.7596
5.83131
-7.40569
-20.8395
-34.4588
-48.2627
-62.2042
-76.2379
-90.2862
-104.23
-117.911
-131.116
-143.568
-154.972
-165.046
-173.701
-181.052
-187.047
-191.405
-193.705
-193.553
-190.542
-184.258
-174.32
-160.431
-142.44
-120.43
-94.8713
-66.7927
-39.0698
101.68
102.833
102.846
100.943
97.2303
91.366
83.272
73.6264
63.2527
52.5459
41.9977
32.1252
22.9942
14.5824
6.88239
-0.258088
-6.98561
-13.4197
-19.7065
-25.9804
-32.3542
-38.9276
-45.7958
-52.9156
-59.9576
-66.5041
-72.2687
-77.0097
-80.4499
-82.2537
-82.0551
-79.5011
-74.2555
-66.0344
-54.6666
-40.1836
-22.9585
-3.86459
14.7726
91.4511
88.0148
82.9513
76.2093
68.5986
59.5169
49.3595
38.594
27.1503
15.3144
3.24296
-9.08676
-21.5681
-34.1896
-46.9507
-59.8066
-72.716
-85.6066
-98.37
-110.863
-122.89
-134.199
-144.526
-153.619
-161.406
-168.009
-173.398
-177.328
-179.429
-179.351
-176.733
-171.204
-162.417
-150.098
-134.097
-114.464
-91.5845
-66.3166
-41.1839
93.7017
94.8703
94.9821
93.3037
89.9263
84.5352
77.0574
68.1279
58.5218
48.6147
38.8696
29.7709
21.3805
13.6776
6.65494
0.170091
-5.91322
-11.7063
-17.3453
-22.9554
-28.6421
-34.5009
-40.6233
-46.9752
-53.2602
-59.102
-64.2477
-68.4868
-71.5782
-73.2301
-73.1199
-70.937
-66.3832
-59.2037
-49.2409
-36.5094
-21.3169
-4.39138
12.247
84.1249
80.8162
75.9746
69.5604
62.3456
53.761
44.1858
34.063
23.3288
12.2541
0.987033
-10.4928
-22.0843
-33.7763
-45.5678
-57.4173
-69.286
-81.1072
-92.7817
-104.179
-115.121
-125.38
-134.717
-142.907
-149.896
-155.81
-160.635
-164.16
-166.062
-166.032
-163.751
-158.892
-151.141
-140.249
-126.066
-108.616
-88.205
-65.5364
-42.814
86.3197
87.4978
87.6975
86.2262
83.1611
78.213
71.3138
63.0581
54.1744
45.019
36.0279
27.6533
19.954
12.9096
6.5129
0.63114
-4.86244
-10.0715
-15.1225
-20.1313
-25.1969
-30.4089
-35.8548
-41.5084
-47.1028
-52.2991
-56.8754
-60.6494
-63.4124
-64.9123
-64.8676
-63.0065
-59.0674
-52.8239
-44.1313
-32.99
-19.648
-4.70246
10.1013
77.3557
74.1728
69.5466
63.4485
56.613
48.5028
39.4813
29.9679
19.9038
9.54631
-0.965071
-11.6486
-22.409
-33.235
-44.1258
-55.042
-65.9474
-76.781
-87.4519
-97.8403
-107.785
-117.079
-125.508
-132.871
-139.13
-144.412
-148.717
-151.863
-153.57
-153.568
-151.578
-147.311
-140.49
-130.886
-118.356
-102.9
-84.7516
-64.4764
-43.9916
79.4928
80.6754
80.953
79.6724
76.8981
72.3645
66.0087
58.3862
50.1818
41.7329
33.4488
25.7515
18.6957
12.2627
6.44419
1.11676
-3.83753
-8.51502
-13.0328
-17.4981
-22.0026
-26.6309
-31.4654
-36.4861
-41.4529
-46.0616
-50.1173
-53.464
-55.9213
-57.2731
-57.2754
-55.693
-52.2975
-46.89
-39.3389
-29.6321
-17.9648
-4.81839
8.30673
71.1046
68.0456
63.6284
57.8344
51.3624
43.7049
35.2095
26.2735
16.843
7.16113
-2.64027
-12.5781
-22.5621
-32.5817
-42.6354
-52.6864
-62.7013
-72.6234
-82.3693
-91.8303
-100.859
-109.269
-116.867
-123.476
-129.068
-133.773
-137.601
-140.397
-141.918
-141.93
-140.191
-136.448
-130.456
-122.011
-110.976
-97.3294
-81.244
-63.1641
-44.7492
73.1827
74.3652
74.7115
73.6066
71.1026
66.9566
61.1106
54.0835
46.5171
38.7313
31.1096
24.0452
17.5887
11.7223
6.43714
1.61847
-2.84328
-7.03758
-11.0725
-15.0472
-19.0465
-23.149
-27.4324
-31.8812
-36.2802
-40.3563
-43.9392
-46.8959
-49.0716
-50.2819
-50.3171
-48.975
-46.0586
-41.3938
-34.862
-26.4417
-16.2813
-4.76196
6.83231
65.3356
62.3981
58.1834
52.6821
46.5578
39.3319
31.3368
22.948
14.1156
5.07001
-4.0649
-13.3041
-22.5633
-31.8317
-41.1077
-50.3569
-59.5484
-68.6296
-77.5246
-86.1332
-94.3226
-101.924
-108.763
-114.685
-119.673
-123.853
-127.247
-129.722
-131.068
-131.084
-129.561
-126.28
-121.028
-113.62
-103.928
-91.9166
-77.7036
-61.6282
-45.122
67.3535
68.5319
68.9386
67.9948
65.7421
61.9586
56.5906
50.122
43.1545
35.9905
28.9888
22.5151
16.616
11.2741
6.4805
2.12813
-1.88442
-5.64002
-9.23844
-12.7712
-16.3162
-19.9466
-23.7347
-27.6688
-31.5557
-35.1515
-38.3073
-40.9106
-42.8292
-43.9066
-43.9639