/*--------------------------------*- C++ -*----------------------------------*\
| =========                 |                                                 |
| \\      /  F ield         | OpenFOAM: The Open Source CFD Toolbox           |
|  \\    /   O peration     | Version:  v1806                                 |
|   \\  /    A nd           | Web:      www.OpenFOAM.com                      |
|    \\/     M anipulation  |                                                 |
\*---------------------------------------------------------------------------*/
FoamFile
{
    version     2.0;
    format      ascii;
    class       volScalarField;
    location    "333";
    object      p;
}
// * * * * * * * * * * * * * * * * * * * * * * * * * * * * * * * * * * * * * //

dimensions      [0 2 -2 0 0 0 0];


internalField   nonuniform List<scalar> 
10720
(
-1899.43
-2399.53
-2980.6
-3522.62
-3987.83
-4449.2
-4831.59
-5123.28
-5356.26
-5511.53
-5609.19
-5662.31
-5672.75
-5644.16
-5579.76
-5478.51
-5348.49
-5182.8
-4989.17
-4760.04
-4502.06
-4210.7
-3899.49
-3573.98
-3254.51
-2970.38
-2714.98
-2466.41
-2222.48
-1984.14
-1750.09
-1519.24
-1290.78
-1063.13
-834.688
-598.902
-355.128
-70.6417
190.567
-1368.5
-878.664
-314.396
245.033
761.627
1207.07
1556.31
1790.02
1908.29
1940.61
1918.85
1849.06
1749.85
1641.69
1532.32
1422.63
1314.97
1209.62
1106.28
1003
899.579
794.61
688.48
583.077
487.707
408.148
339.818
281.062
232.017
193.095
164.011
144.251
133.282
131.055
137.613
154.959
186.053
249.593
369.276
-782.917
-1173.15
-1596.81
-2030.27
-2461.54
-2890.55
-3292.32
-3655.07
-3978.57
-4254.32
-4481.94
-4661.32
-4792.71
-4877.2
-4916.89
-4912.57
-4867.74
-4779.81
-4652.93
-4484.35
-4278.73
-4035.3
-3765.09
-3475.49
-3185.08
-2919.41
-2675.27
-2435.31
-2198
-1964.84
-1735.01
-1507.6
-1281.93
-1056.5
-829.78
-595.308
-352.529
-68.3875
188.633
-423.779
-73.7444
287.873
656.934
1006.93
1320.67
1578.04
1761.71
1865.78
1902.41
1886.24
1827.21
1741.91
1644.51
1541.92
1436.72
1331.41
1227.12
1123.94
1020.83
917.537
813.235
708.379
604.985
510.377
429.534
359.457
298.8
247.82
206.95
175.967
154.415
141.866
138.261
143.662
160.087
190.456
253.596
367.595
-600.302
-951.269
-1334.3
-1747.82
-2163.53
-2575.81
-2975.98
-3346.34
-3677.61
-3964.79
-4200.54
-4386.1
-4525.57
-4620.69
-4672.67
-4682.45
-4651.45
-4579.69
-4469.36
-4320.08
-4134.64
-3914.07
-3666.45
-3399.68
-3128.97
-2875.28
-2638.84
-2406.19
-2175.08
-1946.91
-1721.11
-1496.93
-1273.79
-1050.37
-825.189
-591.94
-350.141
-66.9288
188.166
-274.896
53.987
394.407
732.534
1044.97
1321.16
1546.51
1708.78
1805.08
1845.12
1838.27
1792.22
1719.63
1631.47
1535.01
1434.17
1331.72
1229.28
1127.37
1025.49
923.361
820.544
717.448
615.949
521.911
440.159
369.198
307.761
256.013
214.333
182.532
160.2
146.939
142.688
147.545
163.544
193.608
256.15
364.93
-288.896
-583.837
-912.504
-1265.15
-1626.45
-1994.54
-2358.43
-2706.83
-3031.24
-3325.48
-3583.89
-3804.29
-3986.17
-4128.99
-4230.78
-4289.87
-4305.93
-4279
-4209.97
-4099.38
-3949.33
-3762.14
-3544.68
-3305.4
-3057.6
-2819.12
-2593.1
-2369.69
-2146.3
-1924.37
-1703.71
-1483.7
-1263.89
-1043.09
-819.947
-588.338
-347.895
-66.3255
187.259
-19.2991
247.273
523.712
803.696
1065.25
1300.64
1496.95
1642.15
1733.38
1776.96
1778.67
1744.8
1684.96
1607.98
1520.55
1426.83
1329.68
1231.05
1131.84
1032.05
931.637
830.501
729.143
629.382
536.107
453.865
382.145
319.818
267.03
224.189
191.198
167.709
153.359
148.122
152.151
167.489
197.013
258.565
362.245
-156.416
-420.339
-715.835
-1036.29
-1366.02
-1706.68
-2049.13
-2382.42
-2699.84
-2994.7
-3260.28
-3492.62
-3689
-3847.14
-3964.41
-4040.23
-4074.1
-4066.09
-4016.63
-3926.64
-3797.68
-3632.43
-3436.62
-3218.32
-2989.07
-2763.73
-2546.92
-2331.68
-2115.42
-1899.49
-1684
-1468.38
-1252.26
-1034.49
-813.812
-584.279
-345.632
-66.3232
184.978
85.8747
324.25
571.454
820.333
1051.57
1260.61
1436.85
1569.58
1656.97
1703.35
1712.41
1689.54
1641.82
1576.17
1498.4
1412.5
1321.45
1227.4
1131.6
1034.51
936.366
837.338
738.052
640.265
548.111
465.767
393.493
330.457
276.826
233.039
199.068
174.617
159.37
153.322
156.662
171.429
200.422
260.863
359.408
-43.3966
-277.066
-540.795
-826.665
-1121.69
-1429.52
-1741.27
-2048.36
-2345.7
-2626.81
-2885.95
-3118.95
-3322.23
-3492.76
-3627.96
-3726.54
-3786.35
-3806.24
-3785.46
-3724.31
-3623.79
-3486.35
-3316.87
-3122.85
-2914.45
-2704.33
-2498.16
-2291.8
-2083.08
-1873.36
-1663.1
-1451.95
-1239.6
-1025.03
-807.038
-579.904
-343.459
-67.0983
181.304
170.703
380.041
598.251
819.252
1025.01
1212.6
1372.67
1495.35
1579.4
1627.71
1642.73
1629.17
1592.29
1537.48
1469.58
1392.22
1308.22
1219.81
1128.43
1034.9
939.714
843.293
746.392
650.742
559.932
477.788
405.163
341.569
287.198
242.509
207.552
182.098
165.887
158.941
161.491
175.577
203.912
262.993
356.324
24.4852
-186.812
-426.141
-686.112
-954.179
-1235.84
-1523.18
-1808.51
-2088.33
-2356.71
-2608.46
-2839.56
-3045.88
-3223.79
-3370.23
-3482.35
-3557.61
-3594.36
-3591.63
-3549.66
-3469.26
-3352.65
-3204.1
-3030.32
-2840.17
-2644.2
-2448.43
-2250.84
-2049.69
-1846.29
-1641.35
-1434.72
-1226.22
-1014.94
-799.807
-575.314
-341.462
-68.7531
176.252
218.165
406.676
603.744
803.581
989.676
1160.37
1307.37
1421.89
1502.82
1552.14
1571.94
1566.04
1538.57
1493.7
1435.39
1366.68
1290.18
1208
1121.72
1032.36
940.651
847.259
753.056
659.755
570.547
488.954
416.247
352.282
297.309
251.818
215.945
189.539
172.397
164.576
166.346
179.737
207.358
264.874
353.008
72.493
-119.309
-337.312
-574.021
-817.757
-1075.02
-1338.42
-1601.29
-1861.21
-2113.06
-2352.22
-2575.19
-2777.97
-2956.8
-3108.3
-3229.35
-3317.46
-3370.45
-3386.49
-3365.08
-3306.35
-3211.99
-3085.47
-2932.68
-2761.32
-2580.35
-2395.88
-2207.64
-2014.56
-1817.86
-1618.55
-1416.68
-1212.2
-1004.35
-792.205
-570.556
-339.659
-71.2631
169.796
248.421
419.07
598.174
780.333
950.196
1106.88
1242.91
1350.49
1428.41
1478.07
1501.49
1501.78
1482.28
1446.26
1396.89
1336.66
1267.82
1192.31
1111.67
1027.06
939.375
849.459
758.297
667.585
580.245
499.534
427.009
362.861
307.425
261.234
224.512
197.188
179.126
170.42
171.375
184.01
210.814
266.536
349.495
103.382
-72.2803
-272.359
-489.582
-712.751
-948.941
-1191.46
-1434.26
-1675.91
-1911.85
-2138.15
-2351.89
-2549.29
-2726.66
-2880.64
-3007.9
-3105.24
-3170.2
-3200.33
-3194.72
-3153.27
-3077.3
-2969.68
-2835.5
-2681.39
-2514.81
-2341.61
-2162.79
-1977.89
-1788.13
-1594.67
-1397.78
-1197.52
-993.281
-784.276
-565.647
-337.998
-74.4992
162.002
264.631
420.63
584.904
752.366
908.681
1053.59
1180.31
1281.86
1356.8
1406.32
1432.38
1437.58
1424.71
1396.4
1355.16
1302.97
1241.7
1173.03
1098.38
1018.94
935.723
849.676
761.874
674.007
588.797
509.286
437.22
373.098
317.36
270.59
233.101
204.912
185.954
176.368
176.495
188.33
214.232
267.956
345.778
123.303
-38.4147
-222.901
-423.041
-628.169
-845.615
-1069.14
-1293.33
-1517.42
-1737.37
-1949.91
-2152.62
-2342.07
-2514.96
-2667.96
-2797.65
-2900.76
-2974.74
-3016.87
-3025.61
-3000.4
-2941.99
-2852.56
-2736.38
-2599.07
-2446.85
-2285.2
-2116.06
-1939.57
-1756.98
-1569.6
-1377.92
-1182.11
-981.69
-776.025
-560.606
-336.421
-78.3201
153.073
271.923
415.38
566.977
721.887
866.649
1001.39
1120.13
1216.26
1288.24
1337.3
1365.23
1374.25
1366.83
1345.11
1311.11
1266.37
1212.37
1150.53
1082.07
1008.11
929.713
847.883
763.752
678.988
596.173
518.174
446.855
382.976
327.109
279.891
241.726
212.729
192.907
182.448
181.728
192.709
217.613
269.141
341.873
135.097
-14.5609
-185.488
-370.745
-560.081
-761.004
-967.647
-1175.1
-1382.99
-1587.83
-1786.91
-1978.32
-2158.96
-2325.91
-2476.07
-2606.15
-2712.83
-2793.34
-2844.81
-2865.16
-2853.52
-2810.24
-2736.93
-2637.1
-2515.45
-2377.08
-2226.96
-2067.6
-1899.66
-1724.45
-1543.37
-1357.11
-1165.95
-969.555
-767.439
-555.447
-334.911
-82.6338
143.242
272.799
405.482
546.139
690.208
824.968
950.854
1062.58
1153.81
1222.91
1271.24
1300.38
1312.36
1309.36
1293.22
1265.56
1227.58
1180.43
1125.21
1062.96
994.678
921.363
844.046
763.86
682.444
602.28
526.092
455.806
392.402
336.586
289.064
250.329
220.593
199.944
188.625
187.045
197.124
220.937
270.09
337.795
141.155
2.09652
-156.869
-328.97
-504.355
-690.557
-882.021
-1074.24
-1267.21
-1457.8
-1643.79
-1823.71
-1994.86
-2154.7
-2300.4
-2428.85
-2536.86
-2621.56
-2680.16
-2710.16
-2710.33
-2680.61
-2622.04
-2537.39
-2430.52
-2305.59
-2166.95
-2017.45
-1858.2
-1690.54
-1515.97
-1335.32
-1149.03
-956.868
-758.514
-550.188
-333.486
-87.406
132.686
269.296
392.563
523.657
658.213
784.208
902.286
1007.74
1094.48
1160.79
1208.17
1238.05
1252.27
1252.83
1241.35
1219.18
1187.24
1146.41
1097.52
1041.37
978.813
910.753
838.173
762.169
684.334
607.066
532.972
464.001
401.309
345.737
298.064
258.874
228.478
207.05
194.889
192.438
201.564
224.192
270.806
333.56
143.07
13.3742
-134.957
-295.364
-458.351
-631.401
-809.24
-987.658
-1166.96
-1344.35
-1517.94
-1686.66
-1848.16
-2000.28
-2140.53
-2266.05
-2373.8
-2460.91
-2524.67
-2562.36
-2572.38
-2554.35
-2508.84
-2437.96
-2344.8
-2232.69
-2105.35
-1965.72
-1815.23
-1655.27
-1487.39
-1312.56
-1131.33
-943.624
-749.252
-544.837
-332.183
-92.6123
121.491
262.723
377.724
500.338
626.473
744.676
855.828
955.631
1038.17
1101.82
1148.1
1178.33
1194.2
1197.6
1189.99
1172.52
1145.92
1110.84
1067.88
1017.62
960.732
897.995
830.296
758.663
684.621
610.477
538.741
471.36
409.62
354.492
306.832
267.313
236.347
214.194
201.214
197.885
206.012
227.364
271.293
329.185
142.007
20.6617
-118.137
-268.062
-419.946
-581.182
-746.741
-912.643
-1079.45
-1244.62
-1406.54
-1564.47
-1716.39
-1860.48
-1994.6
-2116.16
-2222.31
-2310.3
-2377.48
-2421.15
-2439.34
-2431.37
-2397.43
-2339.03
-2258.57
-2158.63
-2042.33
-1912.51
-1770.81
-1618.66
-1457.63
-1288.81
-1112.86
-929.816
-739.652
-539.397
-331.038
-98.2355
109.713
254.08
361.708
476.777
595.357
706.579
811.509
906.149
984.796
1045.89
1090.97
1121.25
1138.31
1143.95
1139.51
1126.03
1104.1
1074.18
1036.7
992.038
940.673
883.236
820.492
753.369
683.293
612.478
543.343
477.812
417.264
362.785
315.311
275.599
244.16
221.345
207.577
203.368
210.45
230.439
271.56
324.687
138.804
24.9798
-105.228
-245.696
-387.596
-538.178
-692.607
-847.162
-1002.54
-1156.41
-1307.44
-1455.11
-1597.73
-1733.77
-1861.38
-1978.28
-2081.86
-2169.53
-2238.7
-2286.84
-2311.61
-2312.14
-2288.29
-2241.04
-2172.22
-2083.73
-1978.09
-1857.94
-1725.01
-1580.75
-1426.72
-1264.08
-1093.6
-915.439
-729.711
-533.866
-330.059
-104.263
97.4086
244.066
345.074
453.339
565.109
670.02
769.312
859.217
934.213
992.874
1036.67
1066.76
1084.63
1092.03
1090.2
1080.08
1062.2
1036.87
1004.38
964.954
918.885
866.648
808.865
746.335
680.356
613.042
546.728
483.292
424.173
370.55
323.44
283.678
251.875
228.47
213.95
208.865
214.859
233.403
271.614
320.089
134.094
27.0921
-95.3266
-227.218
-360.089
-500.995
-645.31
-789.537
-934.452
-1077.91
-1218.81
-1356.83
-1490.5
-1618.6
-1739.54
-1851.33
-1951.61
-2037.98
-2107.95
-2159.19
-2189.17
-2196.79
-2181.65
-2144.31
-2086.06
-2008.26
-1912.84
-1802.16
-1677.94
-1541.6
-1394.68
-1238.38
-1073.56
-900.487
-719.425
-528.242
-329.248
-110.661
84.633
233.187
328.215
430.31
535.887
635.055
729.195
814.73
886.306
942.625
985.1
1014.83
1033.22
1041.96
1042.24
1034.95
1020.54
999.267
971.284
936.692
895.637
848.431
795.543
737.626
675.837
612.17
548.865
487.747
430.281
377.722
331.157
291.498
259.446
235.531
220.303
214.349
219.221
236.244
271.468
315.409
128.351
27.5559
-87.7603
-211.821
-336.486
-468.571
-603.679
-738.465
-873.79
-1007.69
-1139.19
-1268.14
-1393.3
-1513.67
-1627.95
-1734.37
-1830.83
-1915.17
-1984.98
-2038.17
-2072.12
-2085.54
-2077.81
-2049.16
-2000.44
-1932.52
-1846.82
-1745.34
-1629.7
-1501.28
-1361.55
-1211.73
-1052.73
-884.962
-708.794
-522.521
-328.592
-117.392
71.4408
221.816
311.411
407.873
507.78
601.703
691.092
772.567
840.942
895.001
936.135
965.368
984.036
993.787
995.779
990.844
979.407
961.68
937.733
907.565
871.198
828.797
780.678
727.341
669.784
609.869
549.733
491.132
435.532
384.239
338.402
299.003
266.826
242.489
226.604
219.793
223.513
238.947
271.131
310.67
121.924
26.8087
-81.9778
-198.884
-316.032
-440.069
-566.741
-692.892
-819.414
-944.493
-1067.29
-1187.78
-1304.9
-1417.86
-1525.57
-1626.5
-1718.82
-1800.54
-1869.43
-1923.56
-1960.41
-1978.47
-1976.98
-1955.88
-1915.67
-1856.83
-1780.28
-1687.66
-1580.43
-1459.87
-1327.37
-1184.14
-1031.14
-868.867
-697.819
-516.696
-328.079
-124.405
57.9019
210.229
294.854
386.147
480.837
569.933
654.932
732.609
797.97
849.871
889.653
918.29
937.054
947.554
950.911
947.931
939.024
924.378
904.014
877.854
845.824
807.962
764.438
715.596
662.267
606.168
549.326
493.414
439.874
390.042
345.115
306.135
273.964
249.299
232.815
225.169
227.715
241.501
270.617
305.896
115.077
25.191
-77.5914
-187.898
-298.165
-414.799
-533.731
-651.944
-770.385
-887.331
-1002.07
-1114.67
-1224.23
-1330.12
-1431.44
-1526.88
-1614.84
-1693.54
-1760.93
-1815.2
-1854
-1875.67
-1879.33
-1864.72
-1832.05
-1781.46
-1713.46
-1629.32
-1530.26
-1417.48
-1292.22
-1155.67
-1008.81
-852.208
-686.497
-510.763
-327.693
-131.648
44.0838
198.631
278.683
365.211
455.077
539.705
620.624
694.742
757.265
807.09
845.524
873.493
892.209
903.241
907.683
906.319
899.56
887.58
870.374
847.82
819.765
786.142
746.992
702.512
653.369
601.117
547.657
494.574
443.267
395.079
351.239
312.839
280.807
255.917
238.899
230.444
231.801
243.895
269.94
301.109
108.014
22.9594
-74.2738
-178.487
-282.407
-392.228
-504.023
-614.941
-725.93
-835.371
-942.631
-1047.89
-1150.35
-1249.53
-1344.7
-1434.74
-1518.26
-1593.66
-1659.09
-1712.83
-1752.79
-1777.18
-1785.01
-1775.9
-1749.83
-1706.69
-1646.62
-1570.51
-1479.37
-1374.2
-1256.16
-1126.34
-985.743
-834.998
-674.833
-504.711
-327.414
-139.063
30.0588
187.169
263
345.113
430.501
510.984
588.083
658.858
718.699
766.533
803.638
830.893
849.446
860.831
866.128
866.094
861.149
851.465
837.028
817.69
793.249
763.551
728.528
688.239
643.192
594.774
544.748
494.603
445.68
399.304
356.72
319.058
287.304
262.295
244.814
235.584
235.75
246.118
269.114
296.333
100.88
20.3096
-71.7684
-170.334
-268.39
-371.91
-477.12
-581.302
-685.409
-787.911
-888.26
-986.684
-1082.51
-1175.35
-1264.64
-1349.42
-1428.46
-1500.39
-1563.51
-1616.21
-1656.66
-1682.97
-1694.12
-1689.61
-1669.27
-1632.78
-1580
-1511.45
-1427.9
-1330.17
-1219.28
-1096.23
-961.991
-817.252
-662.828
-498.53
-327.213
-146.589
15.9076
175.958
247.869
325.876
407.091
483.711
557.236
624.86
682.164
728.089
763.882
790.385
808.693
820.295
826.25
827.305
823.883
816.172
804.153
787.669
766.487
740.392
709.226
672.928
631.851
587.212
540.638
493.509
447.092
402.677
361.508
324.74
293.4
268.384
250.519
240.556
239.536
248.16
268.152
291.591
93.7962
17.3983
-69.8839
-163.192
-255.809
-353.488
-452.597
-550.55
-648.277
-744.36
-838.299
-930.377
-1020
-1106.88
-1190.58
-1270.26
-1344.89
-1413.25
-1473.81
-1525.07
-1565.43
-1593
-1606.71
-1605.99
-1590.58
-1559.99
-1513.84
-1452.36
-1376.04
-1285.54
-1181.68
-1065.4
-937.587
-798.99
-650.485
-492.207
-327.061
-154.161
1.71573
165.074
233.336
307.507
384.822
457.826
527.996
592.649
647.538
691.635
726.148
751.882
769.874
781.58
788.036
789.977
787.837
781.812
771.894
757.931
739.67
716.858
689.264
656.729
619.463
578.52
535.381
491.311
447.494
405.168
365.561
329.833
299.044
274.134
255.97
245.321
243.135
250.01
267.066
286.905
86.8487
14.3409
-68.4587
-156.863
-244.43
-336.67
-430.116
-522.288
-614.111
-704.231
-792.222
-878.391
-962.219
-1043.51
-1121.9
-1196.7
-1267.02
-1331.78
-1389.62
-1439.15
-1478.95
-1507.21
-1522.82
-1525.18
-1513.93
-1488.52
-1448.37
-1393.45
-1323.98
-1240.43
-1143.48
-1033.92
-912.582
-780.234
-637.811
-485.726
-326.921
-161.719
-12.4316
154.568
219.432
290.011
363.664
433.278
500.29
562.13
614.725
657.062
690.33
715.283
732.912
744.637
751.469
754.124
753.053
748.466
740.368
728.618
712.962
693.122
668.815
639.799
606.162
568.798
529.041
488.042
446.889
406.757
368.84
334.291
304.185
279.497
261.12
249.843
246.52
251.66
265.869
282.295
80.0997
11.2325
-67.3712
-151.188
-234.043
-321.217
-409.391
-496.191
-582.522
-667.117
-749.582
-830.253
-908.671
-984.704
-1058.09
-1128.23
-1194.37
-1255.54
-1310.56
-1358.14
-1397.02
-1425.5
-1442.45
-1447.23
-1439.48
-1418.58
-1383.82
-1334.92
-1271.9
-1195.02
-1104.79
-1001.87
-887.031
-761.02
-624.811
-479.072
-326.751
-169.19
-26.4423
144.485
206.162
273.373
343.588
410.012
474.036
533.213
583.62
624.28
656.336
680.506
697.734
709.405
716.504
719.735
719.559
716.194
709.668
699.855
686.511
669.343
648.037
622.289
592.077
558.149
521.693
483.743
445.291
407.434
371.315
338.071
308.776
284.423
265.926
254.085
249.666
253.101
264.572
277.779
73.5922
8.1457
-66.5213
-146.038
-224.483
-306.928
-390.179
-471.974
-553.2
-632.653
-709.977
-785.526
-858.9
-930.02
-998.685
-1064.39
-1126.5
-1184.15
-1236.31
-1281.79
-1319.46
-1347.76
-1365.56
-1372.22
-1367.35
-1350.34
-1320.37
-1276.98
-1219.98
-1149.45
-1065.73
-969.358
-860.995
-741.374
-611.497
-472.223
-326.509
-176.507
-40.2333
134.848
193.537
257.575
324.549
387.963
449.159
505.814
554.141
593.19
624.067
647.459
664.265
675.828
683.108
686.797
687.363
685.037
679.865
671.74
660.435
645.661
627.078
604.34
577.34
546.683
513.42
478.47
442.724
407.196
372.969
341.138
312.771
288.865
270.343
258.007
252.549
254.324
263.182
273.375
67.3619
5.13359
-65.8325
-141.311
-215.624
-293.642
-372.291
-449.413
-525.879
-600.54
-673.081
-743.855
-812.516
-879.037
-943.26
-1004.77
-1063
-1117.23
-1166.52
-1209.82
-1246.06
-1273.87
-1292.12
-1300.17
-1297.65
-1283.96
-1258.22
-1219.82
-1168.41
-1103.9
-1026.46
-936.479
-834.544
-721.345
-597.87
-465.167
-326.142
-183.598
-53.7202
125.672
181.549
242.593
306.506
367.076
425.593
479.849
526.196
563.702
593.44
616.063
632.43
643.842
651.234
655.284
656.461
655.015
651.005
644.349
634.84
622.196
606.069
586.088
562.073
534.509
504.31
472.286
439.225
406.055
373.784
343.464
316.132
292.781
274.329
261.574
255.142
255.321
261.708
269.093
61.4332
2.23302
-65.2405
-136.921
-207.354
-281.217
-355.558
-428.312
-500.331
-570.518
-638.6
-704.924
-769.192
-831.402
-891.455
-948.987
-1003.53
-1054.45
-1100.9
-1141.96
-1176.61
-1203.69
-1222.05
-1231.07
-1230.44
-1219.55
-1197.53
-1163.63
-1117.37
-1058.51
-987.087
-903.345
-807.754
-700.964
-583.955
-457.881
-325.607
-190.404
-66.8206
116.963
170.187
228.402
289.425
347.298
403.274
455.248
499.703
535.731
564.37
586.238
602.154
613.381
620.828
625.16
626.844
626.14
623.127
617.744
609.809
599.052
585.131
567.66
546.406
521.741
494.458
465.258
434.839
404.028
373.76
345.025
318.825
296.128
277.842
264.75
257.421
256.082
260.152
264.944
55.8186
-0.519962
-64.7021
-132.796
-199.583
-269.541
-339.838
-408.507
-476.364
-542.375
-606.293
-668.469
-728.627
-786.81
-842.943
-896.723
-947.756
-995.484
-1039.16
-1077.96
-1110.94
-1137.08
-1155.27
-1164.93
-1165.76
-1157.23
-1138.42
-1108.56
-1067.03
-1013.46
-947.768
-870.06
-780.708
-680.287
-569.755
-450.35
-324.857
-196.854
-79.4582
108.719
159.44
214.98
273.262
328.578
382.14
431.94
474.587
509.199
536.776
557.907
573.37
584.39
591.846
596.39
598.489
598.411
596.25
591.97
585.407
576.316
564.37
549.171
530.45
508.486
483.956
457.465
429.615
401.144
372.901
345.81
320.821
298.872
280.845
267.502
259.362
256.599
258.519
260.931
50.5255
-3.10764
-64.1767
-128.885
-192.238
-258.522
-325.017
-389.853
-453.812
-515.92
-575.941
-634.241
-690.566
-744.975
-797.431
-847.682
-895.386
-940.059
-981.04
-1017.58
-1048.82
-1073.88
-1091.69
-1101.7
-1103.65
-1097.05
-1081.04
-1054.76
-1017.54
-968.909
-908.642
-836.747
-753.483
-659.366
-555.293
-442.555
-323.832
-202.89
-91.5555
100.939
149.29
202.294
257.975
310.863
362.126
409.856
450.775
484.029
510.584
530.996
546.006
556.801
564.233
568.931
571.367
571.814
570.381
567.051
561.686
554.064
543.871
530.719
514.311
494.846
472.899
448.984
423.615
397.44
371.223
345.813
322.102
300.982
283.304
269.798
260.943
256.863
256.806
257.058
45.5577
-5.51521
-63.6352
-125.143
-185.255
-248.075
-310.994
-372.226
-432.531
-490.979
-547.361
-602.034
-654.774
-705.655
-754.665
-801.592
-846.147
-887.903
-926.28
-960.602
-990.087
-1013.96
-1031.22
-1041.33
-1044.1
-1039.09
-1025.47
-1002.37
-969.057
-924.989
-869.842
-803.517
-726.174
-638.249
-540.59
-434.481
-322.495
-208.448
-103.039
93.6131
139.717
190.315
243.526
294.105
343.178
388.934
428.199
460.152
485.721
505.435
519.997
530.551
537.93
542.739
545.448
546.336
545.52
543.008
538.685
532.349
523.711
512.393
498.087
480.921
461.38
439.895
416.901
392.959
368.748
345.037
322.653
302.435
285.189
271.611
262.142
256.864
255.012
253.319
40.9131
-7.73174
-63.0579
-121.533
-178.585
-238.136
-297.685
-355.529
-412.402
-467.422
-520.394
-571.673
-621.06
-668.636
-714.416
-758.219
-799.802
-838.786
-874.658
-906.817
-934.543
-957.161
-973.731
-983.771
-987.105
-983.377
-971.794
-951.491
-921.71
-881.847
-831.502
-770.485
-698.865
-617.001
-525.663
-426.119
-320.799
-213.476
-113.849
86.7308
130.703
179.014
229.876
278.255
325.242
369.109
406.797
437.503
462.123
481.156
495.276
505.583
512.884
517.767
520.694
521.949
521.659
519.848
516.427
511.218
503.952
494.273
481.865
466.802
449.487
430.279
409.541
387.752
365.506
343.494
322.47
303.213
286.478
272.917
262.94
256.594
253.131
249.708
36.5881
-9.75334
-62.4275
-118.03
-172.187
-228.65
-285.02
-339.677
-393.324
-445.123
-494.901
-543.001
-589.249
-633.731
-676.483
-717.353
-756.13
-792.487
-825.964
-856.028
-882.017
-903.339
-919.128
-928.94
-932.638
-929.924
-920.067
-902.22
-875.612
-839.609
-793.748
-737.768
-671.648
-595.677
-510.541
-417.46
-318.704
-217.924
-123.928
80.2783
122.228
168.363
216.984
263.269
308.265
350.327
386.506
416.015
439.723
458.099
471.785
481.84
489.044
493.967
497.068
498.625
498.781
497.572
494.93
490.703
484.644
476.422
465.723
452.572
437.305
420.216
401.603
381.872
361.534
341.203
321.556
303.307
287.152
273.698
263.321
256.042
251.156
246.213
32.5743
-11.5784
-61.7329
-114.61
-166.027
-219.568
-272.935
-324.586
-375.198
-423.972
-470.755
-515.878
-559.185
-600.775
-640.688
-678.803
-714.938
-748.81
-780.007
-808.049
-832.343
-852.349
-867.296
-876.768
-880.66
-878.738
-870.331
-854.627
-830.865
-798.387
-756.697
-705.466
-644.611
-574.337
-495.253
-408.496
-316.177
-221.749
-133.223
74.2417
114.267
158.33
204.816
249.103
292.198
332.537
367.266
395.631
418.461
436.202
449.46
459.26
466.354
471.293
474.526
476.334
476.863
476.169
474.2
470.826
465.828
458.896
449.725
438.307
424.911
409.782
393.159
375.378
356.877
338.191
319.922
302.714
287.201
273.939
263.27
255.2
249.077
242.819
28.863
-13.2078
-60.9667
-111.255
-160.075
-210.851
-261.38
-310.196
-357.946
-403.877
-447.847
-490.178
-530.731
-569.61
-606.867
-642.398
-676.051
-707.578
-736.607
-762.714
-785.361
-804.056
-818.12
-827.163
-831.119
-829.805
-822.612
-808.774
-787.55
-758.285
-720.452
-673.686
-617.837
-553.044
-479.827
-399.233
-313.185
-224.911
-141.697
68.6054
106.799
148.888
193.337
235.716
276.996
315.682
349.026
376.291
398.276
415.401
428.244
437.787
444.76
449.693
453.026
455.038
455.884
455.627
454.236
451.602
447.529
441.736
433.929
424.072
412.38
399.051
384.276
368.33
351.582
334.492
317.587
301.44
286.62
273.63
262.779
254.059
246.884
239.51
25.4449
-14.6457
-60.1248
-107.953
-154.31
-202.467
-250.312
-296.45
-341.505
-384.759
-426.086
-465.8
-503.772
-540.111
-574.877
-607.987
-639.307
-668.622
-695.602
-719.863
-740.922
-758.328
-771.492
-780.047
-783.957
-783.096
-776.917
-764.701
-745.737
-719.385
-685.112
-642.519
-591.41
-531.859
-464.298
-389.673
-309.715
-227.387
-149.315
63.3522
99.8006
140.007
182.511
223.067
262.61
299.715
331.732
357.942
379.113
395.646
408.081
417.37
424.214
429.123
432.527
434.705
435.813
435.927
435.031
433.036
429.771
424.979
418.383
409.925
399.776
388.091
375.022
360.79
345.701
330.145
314.577
299.498
285.413
272.767
261.839
252.611
244.563
236.262
22.3071
-15.8966
-59.2056
-104.694
-148.713
-194.386
-239.689
-283.298
-325.812
-366.545
-405.389
-442.644
-478.196
-512.157
-544.592
-575.432
-604.562
-631.796
-656.84
-679.348
-698.885
-715.038
-727.298
-735.324
-739.111
-738.578
-733.241
-722.43
-705.475
-681.759
-650.756
-612.051
-565.406
-510.84
-448.703
-379.825
-305.753
-229.152
-156.054
58.4659
93.2509
131.659
172.305
211.12
249.001
284.591
315.333
340.532
360.921
376.88
388.919
397.955
404.662
409.533
412.984
415.295
416.621
417.047
416.574
415.129
412.564
408.65
403.126
395.918
387.157
376.967
365.462
352.819
339.288
325.194
310.923
296.908
283.588
271.353
260.448
250.849
242.104
233.055
19.438
-16.9673
-58.2093
-101.471
-143.269
-186.586
-229.483
-270.701
-310.814
-349.173
-385.679
-420.627
-453.909
-485.641
-515.893
-544.607
-571.686
-596.966
-620.185
-641.035
-659.12
-674.064
-685.43
-692.907
-696.512
-696.207
-691.563
-681.97
-666.798
-645.465
-617.457
-582.354
-539.893
-490.045
-433.078
-369.708
-301.289
-230.195
-161.899
53.9296
87.1268
123.818
162.688
199.836
236.126
270.263
299.784
324.011
343.647
359.051
370.707
379.493
386.058
390.876
394.356
396.768
398.274
398.963
398.849
397.875
395.918
392.769
388.19
382.092
374.576
365.736
355.658
344.479
332.399
319.687
306.665
293.698
281.163
269.395
258.607
248.769
239.491
229.864
16.8251
-17.865
-57.1372
-98.2792
-137.967
-179.048
-219.664
-258.619
-296.464
-332.587
-366.895
-399.674
-430.828
-460.471
-488.679
-515.401
-540.559
-564.007
-585.51
-604.793
-621.503
-635.291
-645.784
-652.702
-656.083
-655.928
-651.859
-643.318
-629.728
-610.543
-585.27
-553.494
-514.938
-469.528
-417.462
-359.342
-296.332
-230.512
-166.843
49.7241
81.4071
116.457
153.628
189.18
223.948
256.691
285.04
308.332
327.244
342.112
353.393
361.932
368.352
373.109
376.599
379.089
380.739
381.647
381.836
381.267
379.83
377.348
373.599
368.484
362.078
354.451
345.666
335.828
325.092
313.675
301.843
289.899
278.16
266.908
256.321
246.368
236.712
226.665
14.4556
-18.5993
-55.9919
-95.1147
-132.798
-171.753
-210.206
-247.021
-282.726
-316.738
-348.978
-379.719
-408.875
-436.563
-462.855
-487.715
-511.075
-532.806
-552.7
-570.509
-585.916
-598.605
-608.257
-614.618
-617.75
-617.683
-614.088
-606.461
-594.274
-577.021
-554.237
-525.526
-490.596
-449.342
-401.897
-348.752
-290.89
-230.108
-170.889
45.8337
76.0694
109.552
145.095
179.12
212.428
243.834
271.056
293.451
311.665
326.015
336.932
345.227
351.5
356.186
359.671
362.217
363.982
365.071
365.515
365.288
364.3
362.396
359.371
355.124
349.703
343.161
335.542
326.923
317.422
307.212
296.506
285.551
274.608
263.908
253.599
243.646
233.757
223.435
12.3159
-19.1779
-54.7783
-91.9767
-127.752
-164.689
-201.091
-235.879
-269.56
-301.582
-331.873
-360.699
-387.982
-413.836
-438.337
-461.454
-483.133
-503.259
-521.646
-538.072
-552.253
-563.904
-572.749
-578.566
-581.434
-581.408
-578.205
-571.372
-560.429
-544.914
-524.394
-498.49
-466.913
-429.533
-386.421
-337.967
-284.985
-228.997
-174.049
42.2411
71.0947
103.077
137.063
169.624
201.533
231.655
257.794
279.326
296.867
310.715
321.279
329.333
335.456
340.064
343.532
346.114
347.971
349.206
349.863
349.925
349.32
347.914
345.52
342.034
337.484
331.909
325.335
317.817
309.445
300.35
290.701
280.695
270.54
260.422
250.455
240.605
230.614
220.15
10.393
-19.6104
-53.5004
-88.8647
-122.826
-157.844
-192.299
-225.169
-256.936
-287.081
-315.538
-342.564
-368.088
-392.224
-415.048
-436.536
-456.643
-475.269
-492.249
-507.381
-520.412
-531.084
-539.164
-544.456
-547.056
-547.038
-544.16
-538.017
-528.179
-514.224
-495.757
-472.421
-443.932
-410.142
-371.074
-327.022
-278.64
-227.202
-176.339
38.93
66.4614
97.0091
129.502
160.661
191.227
220.116
245.215
265.917
282.808
296.172
306.391
314.209
320.179
324.703
328.142
330.745
332.669
334.024
334.855
335.16
334.881
333.902
332.055
329.234
325.45
320.73
315.089
308.562
301.215
293.145
284.481
275.376
265.993
256.475
246.907
237.249
227.276
216.79
8.67341
-19.9061
-52.1635
-85.7793
-118.014
-151.208
-183.815
-214.868
-244.827
-273.199
-299.929
-325.262
-349.136
-371.662
-392.918
-412.884
-431.524
-448.75
-464.416
-478.34
-490.295
-500.049
-507.41
-512.201
-514.535
-514.502
-511.895
-506.354
-497.497
-484.944
-468.335
-447.339
-421.685
-391.209
-355.895
-315.952
-271.89
-224.75
-177.788
35.8836
62.1513
91.3246
122.389
152.201
181.479
209.184
233.283
253.184
269.449
282.343
292.227
299.812
305.629
310.063
313.463
316.072
318.046
319.493
320.467
320.973
320.969
320.354
318.98
316.738
313.625
309.659
304.845
299.205
292.783
285.648
277.897
269.643
261.009
252.102
242.976
233.588
223.736
213.336
7.14506
-20.075
-50.7726
-82.7218
-113.311
-144.773
-175.627
-204.958
-233.205
-259.904
-285.006
-308.749
-331.074
-352.092
-371.881
-390.426
-407.698
-423.621
-438.061
-450.86
-461.812
-470.712
-477.396
-481.715
-483.791
-483.726
-481.348
-476.336
-468.351
-457.057
-442.127
-423.259
-400.195
-372.766
-340.921
-304.795
-264.77
-221.679
-178.428
33.0858
58.145
86.0026
115.697
144.219
172.26
198.826
221.961
241.092
256.752
269.192
278.747
286.103
291.767
296.106
299.46
302.062
304.067
305.585
306.675
307.347
307.571
307.266
306.297
304.556
302.029
298.724
294.641
289.79
284.198
277.912
271.001
263.545
255.632
247.335
238.686
229.633
219.993
209.771
5.79483
-20.1259
-49.3345
-79.6936
-108.717
-138.531
-167.72
-195.419
-222.047
-247.168
-270.738
-292.984
-313.857
-333.463
-351.88
-369.098
-385.095
-399.803
-413.105
-424.857
-434.877
-442.982
-449.037
-452.915
-454.744
-454.638
-452.454
-447.908
-440.702
-430.537
-417.123
-400.185
-379.48
-354.84
-326.187
-293.591
-257.323
-218.029
-178.299
30.5218
54.4243
81.0222
109.402
136.686
163.538
189.009
211.218
229.605
244.681
256.679
265.916
273.046
278.555
282.796
286.095
288.681
290.703
292.272
293.451
294.258
294.674
294.63
294.006
292.696
290.677
287.949
284.509
280.357
275.506
269.987
263.844
257.131
249.906
242.214
234.064
225.399
216.046
206.082
4.61055
-20.0684
-47.855
-76.697
-104.231
-132.475
-160.084
-186.236
-211.335
-234.964
-257.09
-277.929
-297.44
-315.724
-332.86
-348.84
-363.649
-377.228
-389.472
-400.253
-409.41
-416.779
-422.25
-425.717
-427.315
-427.165
-425.147
-421.015
-414.503
-405.351
-393.304
-378.111
-359.551
-337.455
-311.725
-282.38
-249.593
-213.847
-177.445
28.1764
50.9718
76.3627
103.482
129.578
155.289
179.707
201.022
218.692
233.203