<?xml version="1.0"?>
<VTKFile type="UnstructuredGrid"  byte_order="LittleEndian">
<UnstructuredGrid>
<Piece NumberOfPoints="961" NumberOfCells=" 1920">
<Points>
<DataArray type="Float32" NumberOfComponents="3" format="ascii">
0.000000 0.000000 0.000000 0.002739 0.000000 0.000000 0.010926 0.000000 0.000000 0.024472 0.000000 0.000000 0.043227 0.000000 0.000000 0.066987 0.000000 0.000000 0.095492 0.000000 0.000000 0.128428 0.000000 0.000000 0.165435 0.000000 0.000000 0.206107 0.000000 0.000000 0.250000 0.000000 0.000000 0.296632 0.000000 0.000000 0.345491 0.000000 0.000000 0.396044 0.000000 0.000000 0.447736 0.000000 0.000000 0.500000 0.000000 0.000000 0.552264 0.000000 0.000000 0.603956 0.000000 0.000000 0.654508 0.000000 0.000000 0.703368 0.000000 0.000000 0.750000 0.000000 0.000000 0.793893 0.000000 0.000000 0.834565 0.000000 0.000000 0.871572 0.000000 0.000000 0.904508 0.000000 0.000000 0.933013 0.000000 0.000000 0.956773 0.000000 0.000000 0.975528 0.000000 0.000000 0.989074 0.000000 0.000000 0.997261 0.000000 0.000000 1.000000 0.000000 0.000000 0.000000 0.002739 0.000000 0.002739 0.002739 0.000000 0.010926 0.002739 0.000000 0.024472 0.002739 0.000000 0.043227 0.002739 0.000000 0.066987 0.002739 0.000000 0.095492 0.002739 0.000000 0.128428 0.002739 0.000000 0.165435 0.002739 0.000000 0.206107 0.002739 0.000000 0.250000 0.002739 0.000000 0.296632 0.002739 0.000000 0.345491 0.002739 0.000000 0.396044 0.002739 0.000000 0.447736 0.002739 0.000000 0.500000 0.002739 0.000000 0.552264 0.002739 0.000000 0.603956 0.002739 0.000000 0.654508 0.002739 0.000000 0.703368 0.002739 0.000000 0.750000 0.002739 0.000000 0.793893 0.002739 0.000000 0.834565 0.002739 0.000000 0.871572 0.002739 0.000000 0.904508 0.002739 0.000000 0.933013 0.002739 0.000000 0.956773 0.002739 0.000000 0.975528 0.002739 0.000000 0.989074 0.002739 0.000000 0.997261 0.002739 0.000000 1.000000 0.002739 0.000000 0.000000 0.010926 0.000000 0.002739 0.010926 0.000000 0.010926 0.010926 0.000000 0.024472 0.010926 0.000000 0.043227 0.010926 0.000000 0.066987 0.010926 0.000000 0.095492 0.010926 0.000000 0.128428 0.010926 0.000000 0.165435 0.010926 0.000000 0.206107 0.010926 0.000000 0.250000 0.010926 0.000000 0.296632 0.010926 0.000000 0.345491 0.010926 0.000000 0.396044 0.010926 0.000000 0.447736 0.010926 0.000000 0.500000 0.010926 0.000000 0.552264 0.010926 0.000000 0.603956 0.010926 0.000000 0.654508 0.010926 0.000000 0.703368 0.010926 0.000000 0.750000 0.010926 0.000000 0.793893 0.010926 0.000000 0.834565 0.010926 0.000000 0.871572 0.010926 0.000000 0.904508 0.010926 0.000000 0.933013 0.010926 0.000000 0.956773 0.010926 0.000000 0.975528 0.010926 0.000000 0.989074 0.010926 0.000000 0.997261 0.010926 0.000000 1.000000 0.010926 0.000000 0.000000 0.024472 0.000000 0.002739 0.024472 0.000000 0.010926 0.024472 0.000000 0.024472 0.024472 0.000000 0.043227 0.024472 0.000000 0.066987 0.024472 0.000000 0.095492 0.024472 0.000000 0.128428 0.024472 0.000000 0.165435 0.024472 0.000000 0.206107 0.024472 0.000000 0.250000 0.024472 0.000000 0.296632 0.024472 0.000000 0.345491 0.024472 0.000000 0.396044 0.024472 0.000000 0.447736 0.024472 0.000000 0.500000 0.024472 0.000000 0.552264 0.024472 0.000000 0.603956 0.024472 0.000000 0.654508 0.024472 0.000000 0.703368 0.024472 0.000000 0.750000 0.024472 0.000000 0.793893 0.024472 0.000000 0.834565 0.024472 0.000000 0.871572 0.024472 0.000000 0.904508 0.024472 0.000000 0.933013 0.024472 0.000000 0.956773 0.024472 0.000000 0.975528 0.024472 0.000000 0.989074 0.024472 0.000000 0.997261 0.024472 0.000000 1.000000 0.024472 0.000000 0.000000 0.043227 0.000000 0.002739 0.043227 0.000000 0.010926 0.043227 0.000000 0.024472 0.043227 0.000000 0.043227 0.043227 0.000000 0.066987 0.043227 0.000000 0.095492 0.043227 0.000000 0.128428 0.043227 0.000000 0.165435 0.043227 0.000000 0.206107 0.043227 0.000000 0.250000 0.043227 0.000000 0.296632 0.043227 0.000000 0.345491 0.043227 0.000000 0.396044 0.043227 0.000000 0.447736 0.043227 0.000000 0.500000 0.043227 0.000000 0.552264 0.043227 0.000000 0.603956 0.043227 0.000000 0.654508 0.043227 0.000000 0.703368 0.043227 0.000000 0.750000 0.043227 0.000000 0.793893 0.043227 0.000000 0.834565 0.043227 0.000000 0.871572 0.043227 0.000000 0.904508 0.043227 0.000000 0.933013 0.043227 0.000000 0.956773 0.043227 0.000000 0.975528 0.043227 0.000000 0.989074 0.043227 0.000000 0.997261 0.043227 0.000000 1.000000 0.043227 0.000000 0.000000 0.066987 0.000000 0.002739 0.066987 0.000000 0.010926 0.066987 0.000000 0.024472 0.066987 0.000000 0.043227 0.066987 0.000000 0.066987 0.066987 0.000000 0.095492 0.066987 0.000000 0.128428 0.066987 0.000000 0.165435 0.066987 0.000000 0.206107 0.066987 0.000000 0.250000 0.066987 0.000000 0.296632 0.066987 0.000000 0.345491 0.066987 0.000000 0.396044 0.066987 0.000000 0.447736 0.066987 0.000000 0.500000 0.066987 0.000000 0.552264 0.066987 0.000000 0.603956 0.066987 0.000000 0.654508 0.066987 0.000000 0.703368 0.066987 0.000000 0.750000 0.066987 0.000000 0.793893 0.066987 0.000000 0.834565 0.066987 0.000000 0.871572 0.066987 0.000000 0.904508 0.066987 0.000000 0.933013 0.066987 0.000000 0.956773 0.066987 0.000000 0.975528 0.066987 0.000000 0.989074 0.066987 0.000000 0.997261 0.066987 0.000000 1.000000 0.066987 0.000000 0.000000 0.095492 0.000000 0.002739 0.095492 0.000000 0.010926 0.095492 0.000000 0.024472 0.095492 0.000000 0.043227 0.095492 0.000000 0.066987 0.095492 0.000000 0.095492 0.095492 0.000000 0.128428 0.095492 0.000000 0.165435 0.095492 0.000000 0.206107 0.095492 0.000000 0.250000 0.095492 0.000000 0.296632 0.095492 0.000000 0.345491 0.095492 0.000000 0.396044 0.095492 0.000000 0.447736 0.095492 0.000000 0.500000 0.095492 0.000000 0.552264 0.095492 0.000000 0.603956 0.095492 0.000000 0.654508 0.095492 0.000000 0.703368 0.095492 0.000000 0.750000 0.095492 0.000000 0.793893 0.095492 0.000000 0.834565 0.095492 0.000000 0.871572 0.095492 0.000000 0.904508 0.095492 0.000000 0.933013 0.095492 0.000000 0.956773 0.095492 0.000000 0.975528 0.095492 0.000000 0.989074 0.095492 0.000000 0.997261 0.095492 0.000000 1.000000 0.095492 0.000000 0.000000 0.128428 0.000000 0.002739 0.128428 0.000000 0.010926 0.128428 0.000000 0.024472 0.128428 0.000000 0.043227 0.128428 0.000000 0.066987 0.128428 0.000000 0.095492 0.128428 0.000000 0.128428 0.128428 0.000000 0.165435 0.128428 0.000000 0.206107 0.128428 0.000000 0.250000 0.128428 0.000000 0.296632 0.128428 0.000000 0.345491 0.128428 0.000000 0.396044 0.128428 0.000000 0.447736 0.128428 0.000000 0.500000 0.128428 0.000000 0.552264 0.128428 0.000000 0.603956 0.128428 0.000000 0.654508 0.128428 0.000000 0.703368 0.128428 0.000000 0.750000 0.128428 0.000000 0.793893 0.128428 0.000000 0.834565 0.128428 0.000000 0.871572 0.128428 0.000000 0.904508 0.128428 0.000000 0.933013 0.128428 0.000000 0.956773 0.128428 0.000000 0.975528 0.128428 0.000000 0.989074 0.128428 0.000000 0.997261 0.128428 0.000000 1.000000 0.128428 0.000000 0.000000 0.165435 0.000000 0.002739 0.165435 0.000000 0.010926 0.165435 0.000000 0.024472 0.165435 0.000000 0.043227 0.165435 0.000000 0.066987 0.165435 0.000000 0.095492 0.165435 0.000000 0.128428 0.165435 0.000000 0.165435 0.165435 0.000000 0.206107 0.165435 0.000000 0.250000 0.165435 0.000000 0.296632 0.165435 0.000000 0.345491 0.165435 0.000000 0.396044 0.165435 0.000000 0.447736 0.165435 0.000000 0.500000 0.165435 0.000000 0.552264 0.165435 0.000000 0.603956 0.165435 0.000000 0.654508 0.165435 0.000000 0.703368 0.165435 0.000000 0.750000 0.165435 0.000000 0.793893 0.165435 0.000000 0.834565 0.165435 0.000000 0.871572 0.165435 0.000000 0.904508 0.165435 0.000000 0.933013 0.165435 0.000000 0.956773 0.165435 0.000000 0.975528 0.165435 0.000000 0.989074 0.165435 0.000000 0.997261 0.165435 0.000000 1.000000 0.165435 0.000000 0.000000 0.206107 0.000000 0.002739 0.206107 0.000000 0.010926 0.206107 0.000000 0.024472 0.206107 0.000000 0.043227 0.206107 0.000000 0.066987 0.206107 0.000000 0.095492 0.206107 0.000000 0.128428 0.206107 0.000000 0.165435 0.206107 0.000000 0.206107 0.206107 0.000000 0.250000 0.206107 0.000000 0.296632 0.206107 0.000000 0.345491 0.206107 0.000000 0.396044 0.206107 0.000000 0.447736 0.206107 0.000000 0.500000 0.206107 0.000000 0.552264 0.206107 0.000000 0.603956 0.206107 0.000000 0.654508 0.206107 0.000000 0.703368 0.206107 0.000000 0.750000 0.206107 0.000000 0.793893 0.206107 0.000000 0.834565 0.206107 0.000000 0.871572 0.206107 0.000000 0.904508 0.206107 0.000000 0.933013 0.206107 0.000000 0.956773 0.206107 0.000000 0.975528 0.206107 0.000000 0.989074 0.206107 0.000000 0.997261 0.206107 0.000000 1.000000 0.206107 0.000000 0.000000 0.250000 0.000000 0.002739 0.250000 0.000000 0.010926 0.250000 0.000000 0.024472 0.250000 0.000000 0.043227 0.250000 0.000000 0.066987 0.250000 0.000000 0.095492 0.250000 0.000000 0.128428 0.250000 0.000000 0.165435 0.250000 0.000000 0.206107 0.250000 0.000000 0.250000 0.250000 0.000000 0.296632 0.250000 0.000000 0.345491 0.250000 0.000000 0.396044 0.250000 0.000000 0.447736 0.250000 0.000000 0.500000 0.250000 0.000000 0.552264 0.250000 0.000000 0.603956 0.250000 0.000000 0.654508 0.250000 0.000000 0.703368 0.250000 0.000000 0.750000 0.250000 0.000000 0.793893 0.250000 0.000000 0.834565 0.250000 0.000000 0.871572 0.250000 0.000000 0.904508 0.250000 0.000000 0.933013 0.250000 0.000000 0.956773 0.250000 0.000000 0.975528 0.250000 0.000000 0.989074 0.250000 0.000000 0.997261 0.250000 0.000000 1.000000 0.250000 0.000000 0.000000 0.296632 0.000000 0.002739 0.296632 0.000000 0.010926 0.296632 0.000000 0.024472 0.296632 0.000000 0.043227 0.296632 0.000000 0.066987 0.296632 0.000000 0.095492 0.296632 0.000000 0.128428 0.296632 0.000000 0.165435 0.296632 0.000000 0.206107 0.296632 0.000000 0.250000 0.296632 0.000000 0.296632 0.296632 0.000000 0.345491 0.296632 0.000000 0.396044 0.296632 0.000000 0.447736 0.296632 0.000000 0.500000 0.296632 0.000000 0.552264 0.296632 0.000000 0.603956 0.296632 0.000000 0.654508 0.296632 0.000000 0.703368 0.296632 0.000000 0.750000 0.296632 0.000000
[...]
<CellData Scalars="Label">
<DataArray type="Int32" Name="Label" format="ascii">
0 0 0 0 0 0 0 0 0 0 0 0 0 0 0 0 0 0 0 0 0 0 0 0 0 0 0 0 0 0 0 0 0 0 0 0 0 0 0 0 0 0 0 0 0 0 0 0 0 0 0 0 0 0 0 0 0 0 0 0 0 0 0 0 0 0 0 0 0 0 0 0 0 0 0 0 0 0 0 0 0 0 0 0 0 0 0 0 0 0 0 0 0 0 0 0 0 0 0 0 0 0 0 0 0 0 0 0 0 0 0 0 0 0 0 0 0 0 0 0 0 0 0 0 0 0 0 0 0 0 0 0 0 0 0 0 0 0 0 0 0 0 0 0 0 0 0 0 0 0 0 0 0 0 0 0 0 0 0 0 0 0 0 0 0 0 0 0 0 0 0 0 0 0 0 0 0 0 0 0 0 0 0 0 0 0 0 0 0 0 0 0 0 0 0 0 0 0 0 0 0 0 0 0 0 0 0 0 0 0 0 0 0 0 0 0 0 0 0 0 0 0 0 0 0 0 0 0 0 0 0 0 0 0 0 0 0 0 0 0 0 0 0 0 0 0 0 0 0 0 0 0 0 0 0 0 0 0 0 0 0 0 0 0 0 0 0 0 0 0 0 0 0 0 0 0 0 0 0 0 0 0 0 0 0 0 0 0 0 0 0 0 0 0 0 0 0 0 0 0 0 0 0 0 0 0 0 0 0 0 0 0 0 0 0 0 0 0 0 0 0 0 0 0 0 0 0 0 0 0 0 0 0 0 0 0 0 0 0 0 0 0 0 0 0 0 0 0 0 0 0 0 0 0 0 0 0 0 0 0 0 0 0 0 0 0 0 0 0 0 0 0 0 0 0 0 0 0 0 0 0 0 0 0 0 0 0 0 0 0 0 0 0 0 0 0 0 0 0 0 0 0 0 0 0 0 0 0 0 0 0 0 0 0 0 0 0 0 0 0 0 0 0 0 0 0 0 0 0 0 0 0 0 0 0 0 0 0 0 0 0 0 0 0 0 0 0 0 0 0 0 0 0 0 0 0 0 0 0 0 0 0 0 0 0 0 0 0 0 0 0 0 0 0 0 0 0 0 0 0 0 0 0 0 0 0 0 0 0 0 0 0 0 0 0 0 0 0 0 0 0 0 0 0 0 0 0 0 0 0 0 0 0 0 0 0 0 0 0 0 0 0 0 0 0 0 0 0 0 0 0 0 0 0 0 0 0 0 0 0 0 0 0 0 0 0 0 0 0 0 0 0 0 0 0 0 0 0 0 0 0 0 0 0 0 0 0 0 0 0 0 0 0 0 0 0 0 0 0 0 0 0 0 0 0 0 0 0 0 0 0 0 0 0 0 0 0 0 0 0 0 0 0 0 0 0 0 0 0 0 0 0 0 0 0 0 0 0 0 0 0 0 0 0 0 0 0 0 0 0 0 0 0 0 0 0 0 0 0 0 0 0 0 0 0 0 0 0 0 0 0 0 0 0 0 0 0 0 0 0 0 0 0 0 0 0 0 0 0 0 0 0 0 0 0 0 0 0 0 0 0 0 0 0 0 0 0 0 0 0 0 0 0 0 0 0 0 0 0 0 0 0 0 0 0 0 0 0 0 0 0 0 0 0 0 0 0 0 0 0 0 0 0 0 0 0 0 0 0 0 0 0 0 0 0 0 0 0 0 0 0 0 0 0 0 0 0 0 0 0 0 0 0 0 0 0 0 0 0 0 0 0 0 0 0 0 0 0 0 0 0 0 0 0 0 0 0 0 0 0 0 0 0 0 0 0 0 0 0 0 0 0 0 0 0 0 0 0 0 0 0 0 0 0 0 0 0 0 0 0 0 0 0 0 0 0 0 0 0 0 0 0 0 0 0 0 0 0 0 0 0 0 0 0 0 0 0 0 0 0 0 0 0 0 0 0 0 0 0 0 0 0 0 0 0 0 0 0 0 0 0 0 0 0 0 0 0 0 0 0 0 0 0 0 0 0 0 0 0 0 0 0 0 0 0 0 0 0 0 0 0 0 0 0 0 0 0 0 0 0 0 0 0 0 0 0 0 0 0 0 0 0 0 0 0 0 0 0 0 0 0 0 0 0 0 0 0 0 0 0 0 0 0 0 0 0 0 0 0 0 0 0 0 0 0 0 0 0 0 0 0 0 0 0 0 0 0 0 0 0 0 0 0 0 0 0 0 0 0 0 0 0 0 0 0 0 0 0 0 0 0 0 0 0 0 0 0 0 0 0 0 0 0 0 0 0 0 0 0 0 0 0 0 0 0 0 0 0 0 0 0 0 0 0 0 0 0 0 0 0 0 0 0 0 0 0 0 0 0 0 0 0 0 0 0 0 0 0 0 0 0 0 0 0 0 0 0 0 0 0 0 0 0 0 0 0 0 0 0 0 0 0 0 0 0 0 0 0 0 0 0 0 0 0 0 0 0 0 0 0 0 0 0 0 0 0 0 0 0 0 0 0 0 0 0 0 0 0 0 0 0 0 0 0 0 0 0 0 0 0 0 0 0 0 0 0 0 0 0 0 0 0 0 0 0 0 0 0 0 0 0 0 0 0 0 0 0 0 0 0 0 0 0 0 0 0 0 0 0 0 0 0 0 0 0 0 0 0 0 0 0 0 0 0 0 0 0 0 0 0 0 0 0 0 0 0 0 0 0 0 0 0 0 0 0 0 0 0 0 0 0 0 0 0 0 0 0 0 0 0 0 0 0 0 0 0 0 0 0 0 0 0 0 0 0 0 0 0 0 0 0 0 0 0 0 0 0 0 0 0 0 0 0 0 0 0 0 0 0 0 0 0 0 0 0 0 0 0 0 0 0 0 0 0 0 0 0 0 0 0 0 0 0 0 0 0 0 0 0 0 0 0 0 0 0 0 0 0 0 0 0 0 0 0 0 0 0 0 0 0 0 0 0 0 0 0 0 0 0 0 0 0 0 0 0 0 0 0 0 0 0 0 0 0 0 0 0 0 0 0 0 0 0 0 0 0 0 0 0 0 0 0 0 0 0 0 0 0 0 0 0 0 0 0 0 0 0 0 0 0 0 0 0 0 0 0 0 0 0 0 0 0 0 0 0 0 0 0 0 0 0 0 0 0 0 0 0 0 0 0 0 0 0 0 0 0 0 0 0 0 0 0 0 0 0 0 0 0 0 0 0 0 0 0 0 0 0 0 0 0 0 0 0 0 0 0 0 0 0 0 0 0 0 0 0 0 0 0 0 0 0 0 0 0 0 0 0 0 0 0 0 0 0 0 0 0 0 0 0 0 0 0 0 0 0 0 0 0 0 0 0 0 0 0 0 0 0 0 0 0 0 0 0 0 0 0 0 0 0 0 0 0 0 0 0 0 0 0 0 0 0 0 0 0 0 0 0 0 0 0 0 0 0 0 0 0 0 0 0 0 0 0 0 0 0 0 0 0 0 0 0 0 0 0 0 0 0 0 0 0 0 0 0 0 0 0 0 0 0 0 0 0 0 0 0 0 0 0 0 0 0 0 0 0 0 0 0 0 0 0 0 0 0 0 0 0 0 0 0 0 0 0 0 0 0 0 0 0 0 0 0 0 0 0 0 0 0 0 0 0 0 0 0 0 0 0 0 0 0 0 0 0 0 0 0 0 0 0 0 0 0 0 0 0 0 0 0 0 0 0 0 0 0 0 0 0 0 0 0 0 0 0 0 0 0 0 0 0 0 0 0 0 0 0 0 0 0 0 0 0 0 0 0 0 0 0 0 0 0 0 0 0 0 0 0 0 0 0 0 0 0 0 0 0 0 0 0 0 0 0 0 0 0 0 0 0 0 0 0 0 0 0 0 0 0 0 0 0 0 0 0 0 0 0 0 0 0 0 0 0 0 0 0 0 0 0 0 0 0 0 0 0 0 0 0 0 0 0 0 0 0 0 0 0 0 0 0 0 0 0 0 0 0 0 0 0 0 0 0 0 0 0 0 0 0 0 0 0 0 0 0 0 0 0 0 0 0 0 0 0 0 0 0 0 0 0 0 0 0 0 0 0 0 0 0 0 0 0 0 0 0 0 0 0 0 0 0 0 0 0 1 1 1 1 1 1 1 1 1 1 1 1 1 1 1 1 1 1 1 1 1 1 1 1 1 1 1 1 1 1 2 2 2 2 2 2 2 2 2 2 2 2 2 2 2 2 2 2 2 2 2 2 2 2 2 2 2 2 2 2 3 3 3 3 3 3 3 3 3 3 3 3 3 3 3 3 3 3 3 3 3 3 3 3 3 3 3 3 3 3 4 4 4 4 4 4 4 4 4 4 4 4 4 4 4 4 4 4 4 4 4 4 4 4 4 4 4 4 4 4 
</DataArray>
</CellData>
<PointData>
<DataArray type="Float64" Name="u" NumberOfComponents="2" format="ascii">
1.4703752565010047e-34 1.4703752565010049e-34 -1.6404686139221213e-37 5.8649964839961512e-34 4.5833465460244036e-36 1.1592111830720655e-33 3.4622076190110773e-35 1.7272794040193362e-33 8.9639022574584618e-35 2.3675291340499769e-33 1.0661634120589882e-34 3.1843503317404934e-33 -3.9051805731170890e-35 4.2390981832006980e-33 -4.9834353526390836e-34 5.4959701644220412e-33 -1.3978369652461702e-33 6.8027981516916592e-33 -2.7900051822778322e-33 7.9111729165784368e-33 -4.6192695483827434e-33 8.5305300265139099e-33 -6.7147560220402556e-33 8.4020337817201682e-33 -8.8138549472027212e-33 7.3719308700609814e-33 -1.0611935650073083e-32 5.4433858181719360e-33 -1.1825938261733919e-32 2.7916184874380759e-33 -1.2255818494850942e-32 -2.6257781279728626e-34 -1.1828771267666559e-32 -3.3148109968803315e-33 -1.0615706845085203e-32 -5.9596843308291882e-33 -8.8159449718775143e-33 -7.8741821566897117e-33 -6.7133655567813132e-33 -8.8814094592573444e-33 -4.6143421006607252e-33 -8.9784820745971727e-33 -2.7830401477887345e-33 -8.3214551268336925e-33 -1.3908837999952218e-33 -7.1722856743621627e-33 -4.9292499676166865e-34 -5.8239546316228830e-33 -3.5646852071222195e-35 -4.5257185565628309e-33 1.0839226609154088e-34 -3.4291271576108367e-33 9.0513866510364085e-35 -2.5687170250652949e-33 3.5084242849918341e-35 -1.8821245176989111e-33 4.5441801790078648e-36 -1.2641302817029132e-33 -2.7306283071437774e-37 -6.3903024979292610e-34 1.6019117953990683e-34 -1.6019117953990683e-34 5.8657956051172292e-34 1.6404328648514562e-37 4.2394517511901323e-08 -4.2498730819570242e-08 3.5864542313163460e-06 -9.0249839273750696e-07 1.6092298578554192e-05 -1.3066636947212836e-06 3.0900409329874194e-05 -4.7410114712493241e-07 2.8003479151953702e-05 1.3121590559292218e-06 -1.6726435266700858e-05 3.5495667553353819e-06 -1.2293246858036819e-04 5.7636373493159518e-06 -2.9998462955290882e-04 7.5686816692914000e-06 -5.4394688615119291e-04 8.6843330380167016e-06 -8.3724666276853855e-04 8.9436248078798869e-06 -1.1509591060887118e-03 8.2957125248726279e-06 -1.4492929291069975e-03 6.8001465269747781e-06 -1.6954335883293534e-03 4.6116847570592228e-06 -1.8576256832476578e-03 1.9576114323465289e-06 -1.9143940574504346e-03 -8.8933623504597446e-07 -1.8580563043117764e-03 -3.6399763266312968e-06 -1.6960130088243854e-03 -6.0181525258749188e-06 -1.4496138081051321e-03 -7.7893424036334120e-06 -1.1507071418514296e-03 -8.7863447740927391e-06 -8.3635517736144974e-04 -8.9291974734805290e-06 -5.4260884738551590e-04 -8.2364907644481708e-06 -2.9853383192392794e-04 -6.8269574393118787e-06 -1.2167646544813085e-04 -4.9124209405789876e-06 -1.5826232702251603e-05 -2.7802251352512011e-06 2.8556744450575986e-05 -7.8324252246240032e-07 3.1229871838260835e-05 6.8051441235795270e-07 1.6278428744089702e-05 1.3661790678796974e-06 3.5203422238856347e-06 1.0003250841851120e-06 -3.1511005907384084e-09 -3.0991114159450574e-09 6.3898909160626005e-34 -2.7301051481854200e-37 1.1740929445338876e-33 -4.5812268212708137e-36 9.0282478475261278e-07 -3.5859305194104837e-06 1.3135565035483871e-05 -1.3132842895762645e-05 4.8082693561199667e-05 -1.7772882845075090e-05 8.3923501684701732e-05 -6.9688622259664680e-06 5.2333677426257256e-05 1.8354469587568277e-05 -1.3549396870048128e-04 5.1940543265670637e-05 -5.5504245974865717e-04 8.6836430153830327e-05 -1.2439732648017628e-03 1.1692958358948157e-04 -2.1889706759278308e-03 1.3743378839915340e-04 -3.3237025782367337e-03 1.4514035309268081e-04 -4.5373287987968266e-03 1.3858419972552190e-04 -5.6918069275205879e-03 1.1807824808798298e-04 -6.6446365798189383e-03 8.5569850690561593e-05 -7.2726363651546286e-03 4.4333969023664062e-05 -7.4924081526919978e-03 -1.4367825176552005e-06 -7.2741227775245136e-03 -4.7085032456137564e-05 -6.6465753907448280e-03 -8.7955777448079351e-05 -5.6927099461802867e-03 -1.1987421707105630e-04 -4.5360622862063082e-03 -1.3962174350686671e-04 -3.3200548742155426e-03 -1.4536057609939806e-04 -2.1836890018262834e-03 -1.3692891996968263e-04 -1.2383178577486376e-03 -1.1594398161474802e-04 -5.5016979152052619e-04 -8.5710777905026938e-05 -1.3202080368022103e-04 -5.1006727497604245e-05 5.4407804329776037e-05 -1.7811066810424129e-05 8.4967242655852634e-05 7.1888446009351215e-06 4.8368568981430332e-05 1.7837971684447909e-05 1.3001313396295995e-05 1.3000118776338519e-05 1.0002566287844842e-06 3.5195602217929750e-06 1.2779052452755687e-33 4.5415075820433049e-36 1.7407455620741913e-33 -3.4642028836283825e-35 1.3154062850707295e-06 -1.6106948422885930e-05 1.7850316984822305e-05 -4.8132560467475665e-05 5.6596053066075044e-05 -5.6384036748727028e-05 7.0279886181593746e-05 -5.2586905363932203e-06 -6.5086541879309551e-05 1.0877332348554920e-04 -5.2050588326327610e-04 2.6307924452116470e-04 -1.4510058750665123e-03 4.2667721388793680e-04 -2.9392525309149399e-03 5.7010698261077348e-04 -4.9623869938682898e-03 6.6941724192225692e-04 -7.3844658499529264e-03 7.0806338057094345e-04 -9.9730610994774385e-03 6.7799731116672385e-04 -1.2435751924045847e-02 5.7997929171216256e-04 -1.4468946892709644e-02 4.2295803552118313e-04 -1.5809317616182702e-02 2.2260232874883295e-04 -1.6278260045130787e-02 -7.1366829158251367e-07 -1.5811907896601755e-02 -2.2416288696938509e-04 -1.4472110704231973e-02 -4.2480559176488010e-04 -1.2436607693054160e-02 -5.8200023468240735e-04 -9.9694618777797367e-03 -6.7982395218733503e-04 -7.3761079547496724e-03 -7.0924900371702822e-04 -4.9508573957249766e-03 -6.6966858921435081e-04 -2.9271256238219885e-03 -5.6943801745934855e-04 -1.4406230340628958e-03 -4.2539897589633679e-04 -5.1313112832187754e-04 -2.6163680251707670e-04 -6.0776440339437218e-05 -1.0752429512277769e-04 7.2196682057517966e-05 6.1236043423665670e-06 5.7016151466841732e-05 5.6815976117507906e-05 1.7909073536079865e-05 4.8420196316567312e-05 1.3713870644275022e-06 1.6290675329430244e-05 1.8961259275495467e-33 3.5097444646459455e-35 2.1975787132923350e-33 -9.0275825094372844e-35 5.1273116134671149e-07 -3.1140860417953665e-05 7.4076873104886501e-06 -8.4696008160281848e-05 6.8732038207114276e-06 -7.0787775853507035e-05 -8.4988743011595874e-05 8.7559158845620664e-05 -4.4807085840407017e-04 4.0650173178077278e-04 -1.3296520533950266e-03 8.3877922948254137e-04 -2.9653800980999072e-03 1.3039059002705260e-03 -5.4892878434334574e-03 1.7171096793683113e-03 -8.8711195827044700e-03 2.0058460508447945e-03 -1.2896239819772143e-02 2.1183848604478740e-03 -1.7188631340536605e-02 2.0283637364270565e-03 -2.1269562601616707e-02 1.7362330615044459e-03 -2.4638531169150088e-02 1.2675775537880490e-03 -2.6859572343173984e-02 6.6872380738052255e-04 -2.7636323259148724e-02 5.9215096702180922e-07 -2.6862829958633667e-02 -6.6824900183417365e-04 -2.4642075682204362e-02 -1.2688387241090720e-03 -2.1269184815982379e-02 -1.7392967988225456e-03 -1.7181277554201440e-02 -2.0322936169186062e-03 -1.2881648812559722e-02 -2.1217232722943805e-03 -8.8518542940061295e-03 -2.0073290086585587e-03 -5.4693518064707659e-03 -1.7162206865939721e-03 -2.9483868298997794e-03 -1.3010092352447541e-03 -1.3175743152707767e-03 -8.3483587702197764e-04 -4.4104090149550126e-04 -4.0260506757070321e-04 -8.1884238158683574e-05 -8.4524173154090979e-05 7.7703142877590667e-06 7.2739442667822384e-05 7.6332612292216305e-06 8.5746568340340111e-05 7.1414854372448727e-07 3.1466025026092221e-05 2.4046841294078862e-33 9.1133841164063290e-35 2.4269752500809750e-33 -1.1089599742439392e-34 -1.2326811797153275e-06 -2.9262388272388886e-05 -1.7220683581193228e-05 -5.6249898319773253e-05 -1.0458863821707799e-04 6.0577205663155634e-05 -3.9894825219205765e-04 4.4901311607714557e-04 -1.1360078962914576e-03 1.1440803081052928e-03 -2.6243795746001843e-03 2.0690801584556918e-03 -5.1615470236575645e-03 3.0700048589817320e-03 -8.9218232873584380e-03 3.9673702003165468e-03 -1.3863849418027646e-02 4.5976848346306774e-03 -1.9691665387848608e-02 4.8395426192712225e-03 -2.5879230614070717e-02 4.6280791449856617e-03 -3.1750095322743789e-02 3.9601742142488039e-03 -3.6592355913345094e-02 2.8913304554256812e-03 -3.9783303635514515e-02 1.5257334367632035e-03 -4.0898666203227248e-02 1.9420667705265427e-06 -3.9786773895448629e-02 -1.5234609719823528e-03 -3.6595530582786813e-02 -2.8930247804950081e-03 -3.1747670515029552e-02 -3.9660616781099145e-03 -2.5867436345619065e-02 -4.6361438733962109e-03 -1.9670353388842658e-02 -4.8465656151237815e-03 -1.3836513269410345e-02 -4.6008059304519450e-03 -8.8938067502336970e-03 -3.9653221292997925e-03 -5.1376816084526414e-03 -3.0634567683877709e-03 -2.6073494727446365e-03 -2.0600891629703757e-03 -1.1260186661390880e-03 -1.1350844028253039e-03 -3.9439059451408916e-04 -4.4185721642374772e-04 -1.0306233957285274e-04 -5.6008110722203246e-05 -1.6592620906090841e-05 5.8445245533302722e-05 -6.9513401913319029e-07 2.9840793261283357e-05 2.6841975358674783e-33 1.1274269524888160e-34 2.3459095072565035e-33 2.4486174168039704e-35 -3.4949493135621642e-06 1.3162716415202267e-05 -5.0550565986406616e-05 1.2501675633839519e-04 -2.5878828599304975e-04 5.0921138145188340e-04 -8.3570216714481244e-04 1.3311822295209738e-03 -2.0801294768723242e-03 2.6399778737573655e-03 -4.3503726770787706e-03 4.3228565053726751e-03 -7.9803278091071222e-03 6.1327373603288016e-03 -1.3158903760188136e-02 7.7583193768690851e-03 -1.9817776303276417e-02 8.8984596822565837e-03 -2.7574337391534896e-02 9.3194596741600754e-03 -3.5753596169112389e-02 8.8905784635952556e-03 -4.3484798465562823e-02 7.5987803194548361e-03 -4.9848078401874635e-02 5.5449062040355658e-03 -5.4036570543963769e-02 2.9251629799685371e-03 -5.5499655914603763e-02 3.3377778251382074e-06 -5.4040497901956773e-02 -2.9213599645378525e-03 -4.9851437850670206e-02 -5.5481680667277536e-03 -4.3481240398591713e-02 -7.6094923257858035e-03 -3.5738573622260038e-02 -8.9051152870937827e-03 -2.7547624571899045e-02 -9.3320409640730729e-03 -1.9783553977497609e-02 -8.9039398822270150e-03 -1.3123676279892213e-02 -7.7543974510051808e-03 -7.9500971654296437e-03 -6.1205903670092923e-03 -4.3285940765730906e-03 -4.3061812211281974e-03 -2.0671707132168832e-03 -2.6231823105076070e-03 -8.2957161348972514e-04 -1.3176797507412684e-03 -2.5643473644637729e-04 -5.0052991870276522e-04 -4.9315929159874317e-05 -1.2086518580160209e-04 -2.6592577886661557e-06 -1.2084224705819625e-05 2.6500072423389539e-33 -2.0416812265705660e-35 1.9478523301741262e-33 4.7091581149573976e-34 -5.9611282365709823e-06 1.1731547582614743e-04 -8.7690141010521655e-05 5.4163213994922160e-04 -4.3433753149345794e-04 1.4485839591907724e-03 -1.3429892829661921e-03 3.0062618431001523e-03 -3.1908138579337538e-03 5.2506604119352740e-03 -6.3858837868018825e-03 8.0138502629263485e-03 -1.1279735951820051e-02 1.0934881273118749e-02 -1.8046435021886548e-02 1.3539017498746803e-02 -2.6564158484680328e-02 1.5345456035871450e-02 -3.6349054027422271e-02 1.5966313551770198e-02 -4.6575913331089659e-02 1.5176096449079843e-02 -5.6188439346390930e-02 1.2944680843605326e-02 -6.4072758950534270e-02 9.4352471022403489e-03 -6.9252150996212528e-02 4.9744549875462528e-03 -7.1060123144715590e-02 5.2352893013712119e-06 -6.9258420151096525e-02 -4.9685693282975479e-03 -6.4079797073289632e-02 -9.4406564453545210e-03 -5.6188320873773769e-02 -1.2962054604288708e-02 -4.6562609421187041e-02 -1.5199711936578425e-02 -3.6321541538185974e-02 -1.5986959280851917e-02 -2.6526762742106458e-02 -1.5354836206592365e-02 -1.8006584463702732e-02 -1.3533284364437981e-02 -1.1244670288975541e-02 -1.0915714364753954e-02 -6.3600803588529263e-03 -7.9870128069293722e-03 -3.1750960427413643e-03 -5.2231830406471507e-03 -1.3352274569886878e-03 -2.9837725374548718e-03 -4.3101601362399104e-04 -1.4338422051758299e-03 -8.5834777853579838e-05 -5.3446145082776094e-04 -4.8975379582465967e-06 -1.1543426630824547e-04 2.2936165220315679e-33 -4.6279324478420375e-34 1.3142808062116768e-33 1.3879150375518944e-33 -8.4752146557383214e-06 2.9947218551976774e-04 -1.2583302018559031e-04 1.2589405816862775e-03 -6.1738138341783314e-04 3.0235838442595558e-03 -1.8816208932888369e-03 5.7175430438735969e-03 -4.3905650984435718e-03 9.3153844534237303e-03 -8.6126553767371297e-03 1.3553428247642942e-02 -1.4911367332736342e-02 1.7924020615848024e-02 -2.3423240275818089e-02 2.1757253858212644e-02 -3.3943190074597236e-02 2.4357997835110879e-02 -4.5862233399433953e-02 2.5150861501381957e-02 -5.8195144815161255e-02 2.3793389587533489e-02 -6.9705490230730485e-02 2.0235827676866418e-02 -7.9101639651683361e-02 1.4723995227921007e-02 -8.5256822660951484e-02 7.7558228221045579e-03 -8.7404309138883196e-02 8.9555810599131365e-06 -8.5270062818326706e-02 -7.7449109197947142e-03 -7.9120781861334463e-02 -1.4730445401787098e-02 -6.9719560864367550e-02 -2.0261031113222163e-02 -5.8194881878664402e-02 -2.3829121169732331e-02 -4.5844223886965213e-02 -2.5183422317985416e-02 -3.3910837627040120e-02 -2.4374669419184952e-02 -2.3384516219142355e-02 -2.1751633243650367e-02 -1.4874962594948650e-02 -1.7897863619375901e-02 -8.5846240044471934e-03 -1.3514778267288923e-02 -4.3728175296496100e-03 -9.2745831453003719e-03 -1.8724228985252877e-03 -5.6832987012589023e-03 -6.1313040142242214e-04 -3.0006183935389129e-03 -1.2342895251110024e-04 -1.2475539812231656e-03 -7.2434004436928992e-06 -2.9644835999937438e-04 1.6940630355119076e-33 -1.3733538435219453e-33 6.0471585766864532e-34 2.9196005411920395e-33 -1.1011755840635531e-05 5.7163118304729950e-04 -1.6420862528100950e-04 2.3259089359981525e-03 -8.0321850860466399e-04 5.3463207722871560e-03 -2.4354980348247619e-03 9.6626611118529066e-03 -5.6417179285351065e-03 1.5126040982238886e-02 -1.0964974861349423e-02 2.1315191783299752e-02 -1.8784917246152114e-02 2.7523237526247846e-02 -2.9187816773235873e-02 3.2843946617655523e-02 -4.1858816813638559e-02 3.6336160077000496e-02 -5.6035139441370264e-02 3.7214857724240297e-02 -7.0553140712291448e-02 3.5011942664920061e-02 -8.3994643071836503e-02 2.9666994796151955e-02 -9.4903925922673812e-02 2.1535945871048446e-02 -1.0202523488168636e-01 1.1330902669439620e-02 -1.0450967144900558e-01 1.7413324484274730e-05 -1.0205397900778247e-01 -1.1306722307463558e-02 -9.4950705480702446e-02 -2.1538514742368686e-02 -8.4042753844970966e-02 -2.9699498228701295e-02 -7.0586931813785517e-02 -3.5063405436919805e-02 -5.6045956318494294e-02 -3.7265674707647349e-02 -4.1847212955366080e-02 -3.6367156880451224e-02 -2.9161555064228902e-02 -3.2844251837447470e-02 -1.8754416601690940e-02 -2.7493495621101035e-02 -1.0938766784858807e-02 -2.1265524208706896e-02 -5.6238841731210036e-03 -1.5070752414792566e-02 -2.4256448112897500e-03 -9.6146308977318930e-03 -7.9831182667760095e-04 -5.3132664199395134e-03 -1.6136257275948762e-04 -2.3092044085388391e-03 -9.6415570873792158e-06 -5.6714393542648550e-04 1.0075394302397336e-33 -2.8959933300116453e-33 3.8853372536741037e-35 5.1871581599670629e-33 -1.3632840970413376e-05 9.4364703268266239e-04 -2.0353666541914205e-04 3.7825888946104165e-03 -9.9440595352443830e-04 8.5085171865607930e-03 -3.0091833211113423e-03 1.5005235655834141e-02 -6.9482804506643412e-03 2.2930391592022731e-02 -1.3442052344741702e-02 3.1626776655823780e-02 -2.2892747838074937e-02 4.0115297792170275e-02 -3.5328697206471908e-02 4.7196884902352014e-02 -5.0302403195749655e-02 5.1649530914140263e-02 -6.6867721571837513e-02 5.2466186014693571e-02 -8.3659757723533471e-02 4.9061748377870897e-02 -9.9072751789544278e-02 4.1391681819961897e-02 -1.1149941014086960e-01 2.9961248027533877e-02 -1.1957802853085368e-01 1.5742399045135507e-02 -1.2239842163724650e-01 3.5933725662518332e-05 -1.1963572538722610e-01 -1.5686959418046788e-02 -1.1159846923692561e-01 -2.9947794998076784e-02 -9.9186744314273864e-02 -4.1427385049583342e-02 -8.3761847172152834e-02 -4.9132983937691950e-02 -6.6939530558838597e-02 -5.2545526257453921e-02 -5.0338417095776959e-02 -5.1708143646329981e-02 -3.5334978152907807e-02 -4.7216064693330624e-02 -2.2881558442434505e-02 -4.0092095162375996e-02 -1.3425597227806512e-02 -3.1572356667843630e-02 -6.9344417368736337e-03 -2.2863372724596862e-02 -3.0004444212662217e-03 -1.4943863836992465e-02 -9.8945047898610534e-04 -