<VTKFile type="UnstructuredGrid" version="1.0" byte_order="LittleEndian" header_type="UInt64">
  <UnstructuredGrid>
    <Piece NumberOfPoints="27" NumberOfCells="96">
      <PointData Scalars="Label">
        <DataArray type="Int32" Name="Label" format="ascii" RangeMin="0" RangeMax="1">
          0 0 1 0 0 0
          1 0 1 0 0 0
          0 0 0 0 0 0
          1 0 1 0 0 0
          1 0 1
        </DataArray>
        <DataArray type="Float64" Name="Velocity" NumberOfComponents="3" format="ascii" RangeMin="0.24163655239521145" RangeMax="1.4723720592614893">
          -0.13950892857142844 -0.13950892857142844 -0.13950892857142844 -0.18468324829931956 -0.18468324829931956 -0.18468324829931956
          -0.17485119047619038 -0.17485119047619038 -0.17485119047619038 -0.18468324829931962 -0.18468324829931962 -0.18468324829931962
          -0.2608300264550263 -0.2608300264550263 -0.2608300264550263 -0.2367931547619047 -0.2367931547619047 -0.2367931547619047
          -0.17485119047619038 -0.17485119047619038 -0.17485119047619038 -0.23679315476190466 -0.23679315476190466 -0.23679315476190466
          -0.22879464285714277 -0.22879464285714277 -0.22879464285714277 -0.18468324829931956 -0.18468324829931956 -0.18468324829931956
          -0.2608300264550263 -0.2608300264550263 -0.2608300264550263 -0.23679315476190466 -0.23679315476190466 -0.23679315476190466
          -0.2608300264550263 -0.2608300264550263 -0.2608300264550263 -0.46177455357142844 -0.46177455357142844 -0.46177455357142844
          -0.4321676587301585 -0.4321676587301585 -0.4321676587301585 -0.2367931547619047 -0.2367931547619047 -0.2367931547619047
          -0.4321676587301585 -0.4321676587301585 -0.4321676587301585 -0.5011692176870745 -0.5011692176870745 -0.5011692176870745
          -0.17485119047619038 -0.17485119047619038 -0.17485119047619038 -0.2367931547619047 -0.2367931547619047 -0.2367931547619047
          -0.22879464285714277 -0.22879464285714277 -0.22879464285714277 -0.23679315476190466 -0.23679315476190466 -0.23679315476190466
          -0.4321676587301585 -0.4321676587301585 -0.4321676587301585 -0.5011692176870745 -0.5011692176870745 -0.5011692176870745
          -0.22879464285714277 -0.22879464285714277 -0.22879464285714277 -0.5011692176870745 -0.5011692176870745 -0.5011692176870745
          -0.8500744047619045 -0.8500744047619045 -0.8500744047619045
          <InformationKey name="L2_NORM_RANGE" location="vtkDataArray" length="2">
            <Value index="0">
              0.2416365524
            </Value>
            <Value index="1">
              1.4723720593
            </Value>
          </InformationKey>
          <InformationKey name="L2_NORM_FINITE_RANGE" location="vtkDataArray" length="2">
            <Value index="0">
              0.2416365524
            </Value>
            <Value index="1">
              1.4723720593
            </Value>
          </InformationKey>
        </DataArray>
      </PointData>
      <CellData>
      </CellData>
      <Points>
        <DataArray type="Float32" Name="Points" NumberOfComponents="3" format="ascii" RangeMin="0" RangeMax="1.7320508075688772">
          0 0 0 0.5 0 0
          1 0 0 0 0.5 0
          0.5 0.5 0 1 0.5 0
          0 1 0 0.5 1 0
          1 1 0 0 0 0.5
          0.5 0 0.5 1 0 0.5
          0 0.5 0.5 0.5 0.5 0.5
          1 0.5 0.5 0 1 0.5
          0.5 1 0.5 1 1 0.5
          0 0 1 0.5 0 1
          1 0 1 0 0.5 1
          0.5 0.5 1 1 0.5 1
          0 1 1 0.5 1 1
          1 1 1
          <InformationKey name="L2_NORM_FINITE_RANGE" location="vtkDataArray" length="2">
            <Value index="0">
              0
            </Value>
            <Value index="1">
              1.7320508076
            </Value>
          </InformationKey>
          <InformationKey name="L2_NORM_RANGE" location="vtkDataArray" length="2">
            <Value index="0">
              0
            </Value>
            <Value index="1">
              1.7320508076
            </Value>
          </InformationKey>
        </DataArray>
      </Points>
      <Cells>
        <DataArray type="Int64" IdType="1" Name="connectivity" format="ascii" RangeMin="0" RangeMax="26">
          9 0 12 13 0 9
          10 13 1 0 10 13
          0 1 4 13 3 0
          4 13 0 3 12 13
          10 1 13 14 1 10
          11 14 2 1 11 14
          1 2 5 14 4 1
          5 14 1 4 13 14
          12 3 15 16 3 12
          13 16 4 3 13 16
          3 4 7 16 6 3
          7 16 3 6 15 16
          13 4 16 17 4 13
          14 17 5 4 14 17
          4 5 8 17 7 4
          8 17 4 7 16 17
          18 9 21 22 9 18
          19 22 10 9 19 22
          9 10 13 22 12 9
          13 22 9 12 21 22
          19 10 22 23 10 19
          20 23 11 10 20 23
          10 11 14 23 13 10
          14 23 10 13 22 23
          21 12 24 25 12 21
          22 25 13 12 22 25
          12 13 16 25 15 12
          16 25 12 15 24 25
          22 13 25 26 13 22
          23 26 14 13 23 26
          13 14 17 26 16 13
          17 26 13 16 25 26
          9 0 12 0 9 10
          1 0 10 0 1 4
          3 0 4 0 3 12
          1 10 11 2 11 14
          2 1 11 14 5 2
          1 2 5 4 1 5
          12 3 15 3 4 7
          6 7 16 6 3 7
          16 15 6 3 6 15
          5 14 17 17 8 5
          4 5 8 7 8 17
          7 4 8 17 16 7
          18 21 22 18 9 21
          22 19 18 9 18 19
          10 9 19 9 12 21
          19 22 23 23 20 19
          10 19 20 11 20 23
          11 10 20 23 14 11
          21 24 25 21 12 24
          25 22 21 15 16 25
          25 24 15 12 15 24
          22 25 26 26 23 22
          14 23 26 26 17 14
          16 17 26 26 25 16
        </DataArray>
        <DataArray type="Int64" IdType="1" Name="offsets" format="ascii" RangeMin="4" RangeMax="336">
          4 8 12 16 20 24
          28 32 36 40 44 48
          52 56 60 64 68 72
          76 80 84 88 92 96
          100 104 108 112 116 120
          124 128 132 136 140 144
          148 152 156 160 164 168
          172 176 180 184 188 192
          195 198 201 204 207 210
          213 216 219 222 225 228
          231 234 237 240 243 246
          249 252 255 258 261 264
          267 270 273 276 279 282
          285 288 291 294 297 300
          303 306 309 312 315 318
          321 324 327 330 333 336
        </DataArray>
        <DataArray type="UInt8" Name="types" format="ascii" RangeMin="5" RangeMax="10">
          10 10 10 10 10 10
          10 10 10 10 10 10
          10 10 10 10 10 10
          10 10 10 10 10 10
          10 10 10 10 10 10
          10 10 10 10 10 10
          10 10 10 10 10 10
          10 10 10 10 10 10
          5 5 5 5 5 5
          5 5 5 5 5 5
          5 5 5 5 5 5
          5 5 5 5 5 5
          5 5 5 5 5 5
          5 5 5 5 5 5
          5 5 5 5 5 5
          5 5 5 5 5 5
        </DataArray>
      </Cells>
    </Piece>
  </UnstructuredGrid>
</VTKFile>
