/*--------------------------------*- C++ -*----------------------------------*\
| =========                 |                                                 |
| \\      /  F ield         | OpenFOAM: The Open Source CFD Toolbox           |
|  \\    /   O peration     | Version:  v1806                                 |
|   \\  /    A nd           | Web:      www.OpenFOAM.com                      |
|    \\/     M anipulation  |                                                 |
\*---------------------------------------------------------------------------*/
FoamFile
{
    version     2.0;
    format      ascii;
    class       volScalarField;
    location    "271";
    object      p;
}
// * * * * * * * * * * * * * * * * * * * * * * * * * * * * * * * * * * * * * //

dimensions      [0 2 -2 0 0 0 0];


internalField   nonuniform List<scalar> 
10720
(
1575.94
1392.56
1150.6
868.953
559.326
214.247
-134.707
-474.497
-805.648
-1109.97
-1387.12
-1636.25
-1855.68
-2046
-2206.57
-2334.52
-2432.93
-2494.75
-2525
-2518.28
-2477.03
-2395.33
-2282.21
-2141.22
-1989.75
-1854.27
-1731.55
-1604.97
-1473.85
-1339.81
-1202.53
-1061.82
-917.562
-769.096
-615.369
-451.475
-272.761
-48.2092
224.955
1724.71
1834.1
1898.72
1914.19
1880.9
1775.47
1599.23
1378.33
1142.74
911.255
704.272
533.778
394.56
282.026
193.047
116.633
50.3469
-11.0656
-70.0338
-130.774
-192.782
-258.054
-325.008
-389.884
-437.869
-462.035
-472.033
-471.58
-460.816
-439.386
-407.982
-367.456
-318.432
-260.793
-194.093
-115.156
-19.1403
117.73
323.84
1557.64
1421.22
1246.07
1034.39
791.871
519.857
229.721
-68.7518
-369.264
-661.756
-940.475
-1201.06
-1439.78
-1654.12
-1841.6
-1999.57
-2127.51
-2221.63
-2282.9
-2306.09
-2292.49
-2239.89
-2154.87
-2042.12
-1916.21
-1798.22
-1686.87
-1569.41
-1445.48
-1317.15
-1184.52
-1047.61
-906.438
-760.458
-608.675
-446.269
-268.722
-44.9721
222.663
1664.63
1748.41
1804.44
1822.96
1794.59
1712.58
1580.85
1412.74
1224.7
1031.22
846.516
680.649
535.416
410.323
304.073
211.431
129.724
55.3502
-14.3582
-82.7166
-150.333
-218.711
-286.795
-351.064
-400.208
-428.485
-442.764
-446.21
-438.992
-420.887
-392.549
-354.775
-308.135
-252.513
-187.435
-109.75
-14.7299
121.449
321.241
1481.28
1363.64
1211.54
1024.84
809.127
564.432
297.48
17.6906
-267.72
-551.157
-824.759
-1083.38
-1322.64
-1539.02
-1729.6
-1892.07
-2024.62
-2124.76
-2191.11
-2221.17
-2215.49
-2173.18
-2098.84
-1997.77
-1882.04
-1769.08
-1660.44
-1546.56
-1426.19
-1301.08
-1171.37
-1036.99
-897.967
-753.75
-603.357
-442.04
-265.385
-42.9051
219.178
1572.53
1643.04
1690.89
1709.44
1690.33
1627.45
1521.91
1381.43
1217.72
1042.99
869.49
707.439
561.83
434.022
323.677
227.932
143.739
67.9225
-2.41311
-70.2516
-136.93
-203.573
-269.439
-331.402
-380.613
-411.276
-427.585
-432.701
-427.014
-410.415
-383.513
-347.066
-301.617
-247.047
-182.841
-105.854
-11.415
123.775
316.902
1390.87
1291.28
1162.43
1004.51
821.95
612.704
382.122
136.848
-117.971
-375.933
-630.451
-876.432
-1109.1
-1324.4
-1518.56
-1688.52
-1831.46
-1944.66
-2025.76
-2073.25
-2086.12
-2063.58
-2008.64
-1926.34
-1826.73
-1724.55
-1623.4
-1516.32
-1401.69
-1281.23
-1155.42
-1024.29
-887.941
-745.914
-597.265
-437.358
-261.929
-41.3929
214.829
1468.66
1529.15
1571.73
1590.61
1578.4
1529.88
1445.38
1330.53
1193.95
1044.69
892.5
745.925
609.811
486.394
376.285
278.244
190.231
110.044
35.4089
-35.9893
-105.482
-173.859
-240.511
-302.667
-353.256
-386.828
-405.982
-413.744
-410.622
-396.479
-371.828
-337.381
-293.661
-240.557
-177.542
-101.516
-7.93305
125.743
311.96
1296.43
1209.37
1096.46
957.935
798.075
613.498
408.415
188.119
-43.8643
-282.008
-520.66
-755.018
-980.133
-1191.55
-1385.19
-1557.43
-1704.9
-1824.65
-1913.98
-1970.98
-1994.16
-1982.89
-1939.67
-1869.47
-1781.02
-1686.61
-1590.72
-1488.51
-1378.27
-1261.6
-1139.15
-1011
-877.23
-737.406
-590.59
-432.238
-258.278
-40.1442
209.604
1364.73
1417.91
1456.7
1475.9
1469
1431.72
1363.56
1268.61
1153.4
1024.63
890.039
756.813
629.439
510.7
402.059
303.473
213.886
131.841
55.5829
-16.7606
-86.5207
-154.4
-219.94
-280.774
-331.264
-366.473
-387.664
-397.373
-396.147
-383.848
-360.935
-328.091
-285.814
-233.994
-172.076
-96.9957
-4.36149
127.523
306.585
1203.95
1126.83
1026.88
904.52
763.994
601.17
419.622
223.591
15.3384
-200.591
-419.633
-637.724
-850.255
-1052.88
-1241.53
-1412.32
-1561.5
-1685.85
-1782.26
-1848.43
-1882.94
-1885.07
-1856.32
-1800.89
-1725.96
-1641.66
-1552.97
-1457
-1352.25
-1240.19
-1121.67
-996.865
-865.912
-728.441
-583.571
-426.906
-254.615
-39.3416
203.476
1264.85
1312.55
1348.53
1367.99
1365.14
1336.5
1281.12
1202.15
1104.85
994.257
876.577
757.756
641.575
530.738
427.014
330.945
242.16
159.836
82.765
9.57242
-60.8225
-128.936
-194.315
-254.851
-305.933
-343.139
-366.722
-378.722
-379.731
-369.626
-348.792
-317.855
-277.277
-226.944
-166.288
-92.2938
-0.770199
128.993
300.723
1115.96
1046.63
956.899
847.27
722.064
576.72
414.331
238.487
50.4604
-145.959
-347.129
-549.735
-749.603
-942.703
-1125.09
-1292.75
-1441.78
-1568.69
-1670.11
-1743.53
-1787
-1799.6
-1782.16
-1738.38
-1674.47
-1598.8
-1516.44
-1426.01
-1326.3
-1218.58
-1103.84
-982.31
-854.176
-719.108
-576.265
-421.399
-250.965
-38.9904
196.554
1171.06
1214.5
1248.28
1267.92
1268.22
1246.34
1201.08
1134.93
1052.25
956.932
853.965
748.287
642.952
540.358
442.34
349.749
262.726
181.033
103.975
30.6515
-39.7202
-107.478
-172.184
-231.992
-283.118
-321.647
-347.119
-361.032
-363.972
-355.812
-336.862
-307.686
-268.71
-219.814
-160.407
-87.5401
2.76666
130.105
294.452
1033.45
970.435
889.066
789.932
677.407
546.755
400.759
242.542
72.7375
-105.567
-289.401
-476.179
-662.325
-844.239
-1018.23
-1180.44
-1326.93
-1454.1
-1558.43
-1637.14
-1688.07
-1710.2
-1703.74
-1671.61
-1618.91
-1552.49
-1477.2
-1392.87
-1298.62
-1195.62
-1084.93
-966.921
-841.808
-709.308
-568.644
-415.735
-247.346
-39.0565
188.992
1083.88
1123.92
1155.89
1175.62
1178.4
1161.84
1124.67
1068.9
998.245
915.812
825.701
732.044
637.265
543.377
452.077
364.28
280.441
200.693
124.747
52.0999
-17.7306
-84.8946
-148.917
-208.142
-259.363
-299.109
-326.426
-342.297
-347.245
-341.139
-324.196
-296.908
-259.656
-212.309
-154.266
-82.6542
6.26921
130.865
287.839
956.675
898.868
824.416
733.998
631.991
513.657
381.525
238.409
84.4609
-77.7164
-245.744
-417.662
-590.434
-760.935
-925.859
-1081.56
-1224.22
-1350.23
-1456.02
-1538.64
-1595.62
-1625.76
-1628.67
-1606.63
-1563.9
-1506.05
-1437.58
-1359.13
-1270.24
-1171.94
-1065.34
-950.922
-828.919
-699.1
-560.738
-409.947
-243.792
-39.5429
180.873
1003.25
1040.5
1070.97
1090.69
1095.4
1083.1
1052.47
1005.17
944.442
872.841
793.8
710.819
625.809
540.397
456.056
373.634
293.721
216.695
142.559
71.1572
2.30303
-63.9588
-127.103
-185.61
-236.717
-277.342
-306.212
-323.836
-330.63
-326.446
-311.417
-285.96
-250.411
-204.622
-147.983
-77.7096
9.68625
131.25
280.898
885.52
832.081
763.467
680.423
587.3
479.43
359.179
229.135
89.1259
-58.6198
-212.203
-370.154
-529.915
-688.894
-844.167
-992.361
-1129.94
-1253.36
-1359.08
-1444.03
-1505.6
-1542.38
-1553.59
-1540.82
-1507.48
-1458.04
-1396.51
-1324.09
-1240.69
-1147.24
-1044.89
-934.2
-815.447
-688.447
-552.535
-404.037
-240.327
-40.4688
172.245
928.854
963.754
992.908
1012.56
1018.79
1009.92
984.646
944.312
891.821
829.346
759.811
686.239
610.139
532.791
455.429
378.767
303.402
229.819
158.229
88.7225
21.3585
-43.6441
-105.69
-163.364
-214.217
-255.485
-285.7
-304.96
-313.535
-311.259
-298.165
-274.586
-240.802
-196.644
-141.497
-72.6808
13.0226
131.268
273.641
819.696
769.992
706.371
629.631
544.098
445.206
335.196
216.471
88.6866
-46.2397
-186.783
-331.878
-479.384
-627.149
-772.662
-912.922
-1044.65
-1164.5
-1269
-1355.08
-1420.01
-1462.17
-1480.48
-1475.83
-1450.94
-1409.39
-1354.62
-1288.16
-1210.22
-1121.67
-1023.65
-916.785
-801.401
-677.352
-544.037
-398.011
-236.974
-41.8374
163.128
860.247
893.123
921.108
940.635
948.059
941.989
921.113
886.568
840.964
786.201
724.822
659.486
591.392
521.533
450.926
380.113
309.612
239.94
171.416
104.304
38.8489
-24.5732
-85.3103
-142.01
-192.442
-234.102
-265.415
-286.139
-296.37
-295.909
-284.691
-262.962
-230.946
-188.451
-134.854
-67.598
16.2547
130.921
266.097
758.844
712.383
653.096
581.825
502.845
411.729
310.627
201.797
84.7665
-38.7645
-167.557
-300.863
-436.903
-573.932
-709.806
-841.881
-967.216
-1082.69
-1184.98
-1271.07
-1338.18
-1384.49
-1408.77
-1411.26
-1394.05
-1359.94
-1311.79
-1251.25
-1178.78
-1095.2
-1001.6
-898.667
-786.774
-665.811
-535.246
-391.881
-233.747
-43.6487
153.552
796.979
828.086
855.008
874.348
882.723
878.932
861.705
832.004
792.195
743.983
689.614
631.458
570.498
507.506
443.296
378.243
312.756
247.313
182.269
117.986
54.8451
-6.66741
-65.8547
-121.401
-171.233
-213.043
-245.212
-267.223
-278.989
-280.268
-270.89
-251.013
-220.793
-180.011
-128.043
-62.4631
19.3749
130.222
258.291
702.601
658.986
603.501
537.026
463.769
379.457
286.157
186.018
78.4896
-34.9166
-153.15
-275.723
-401.149
-528.023
-654.561
-778.466
-897.123
-1007.67
-1107
-1192.19
-1260.46
-1309.85
-1339.03
-1347.67
-1337.29
-1310.05
-1268.26
-1213.53
-1146.47
-1067.86
-978.749
-879.852
-771.565
-653.823
-526.165
-385.654
-230.652
-45.8873
143.549
738.595
768.14
794.072
813.179
822.297
820.384
806.205
780.578
745.682
703.058
654.726
602.83
548.201
491.436
433.179
373.661
313.175
252.125
190.847
129.727
69.2255
9.90367
-47.5041
-101.712
-150.76
-192.49
-225.276
-248.385
-261.548
-264.466
-256.866
-238.813
-210.393
-171.359
-121.088
-57.2942
22.3691
129.179
250.253
650.606
609.516
557.405
495.175
426.965
348.657
262.24
169.783
70.6776
-33.6976
-142.446
-255.266
-370.924
-488.286
-605.905
-721.806
-833.663
-938.92
-1034.69
-1118.2
-1186.74
-1238.23
-1271.28
-1285.13
-1280.78
-1259.85
-1224.12
-1175.05
-1113.33
-1039.7
-955.13
-860.348
-755.778
-641.39
-516.797
-379.335
-227.703
-48.5331
133.157
684.677
712.813
737.834
756.661
766.351
765.983
754.369
732.197
701.484
663.654
620.539
574.108
525.075
473.916
421.142
366.864
311.259
254.642
197.291
139.576
81.9815
25.1048
-30.3002
-82.9802
-131.054
-172.477
-205.638
-229.646
-244.057
-248.507
-242.617
-226.36
-199.748
-162.499
-113.994
-52.1024
25.2279
127.811
242.014
602.51
563.686
514.595
456.162
392.444
319.471
239.175
153.543
61.9463
-34.3416
-134.554
-238.527
-345.233
-453.775
-562.955
-671.104
-776.195
-875.95
-967.744
-1048.97
-1117.02
-1169.75
-1205.74
-1223.91
-1224.81
-1209.58
-1179.55
-1135.94
-1079.45
-1010.77
-930.765
-840.171
-739.418
-628.517
-507.148
-372.933
-224.901
-51.5664
122.426
634.842
661.691
685.847
704.367
714.492
715.398
705.952
686.728
659.602
625.903
587.314
545.657
501.57
455.438
407.676
358.294
307.373
255.123
201.754
147.592
93.1039
38.8882
-14.3106
-65.2791
-112.194
-153.094
-186.398
-211.099
-226.6
-232.46
-228.202
-213.698
-188.888
-153.455
-106.783
-46.9026
27.9408
126.133
233.61
557.988
521.221
474.862
419.856
360.162
291.966
217.151
137.622
52.7477
-36.2822
-128.807
-224.763
-323.277
-423.647
-524.908
-625.642
-724.105
-818.284
-905.814
-984.277
-1051.19
-1104.44
-1142.51
-1164.18
-1169.57
-1159.44
-1134.7
-1096.31
-1044.91
-981.111
-905.692
-819.341
-722.5
-615.211
-497.224
-366.453
-222.251
-54.9549
111.402
588.741
614.409
637.736
655.923
666.367
668.329
660.724
644.028
619.995
589.875
555.229
517.755
478.04
436.406
393.193
348.34
301.846
253.829
204.419
153.88
102.631
51.2389
0.419844
-48.6606
-94.2302
-134.4
-167.621
-192.81
-209.234
-216.373
-213.655
-200.856
-177.836
-144.244
-99.4685
-41.7085
30.501
124.17
225.076
516.759
481.869
437.995
386.106
330.041
266.157
196.272
122.231
43.4033
-39.0979
-124.68
-213.35
-304.379
-397.213
-491.082
-584.79
-676.839
-765.472
-848.566
-923.91
-989.174
-1042.29
-1081.68
-1106.09
-1115.25
-1109.61
-1089.74
-1056.3
-1009.82
-950.809
-879.955
-797.887
-705.04
-601.482
-487.035
-359.904
-219.752
-58.6662
100.136
546.059
570.635
593.168
610.996
621.666
624.497
618.462
603.947
582.593
555.59
524.392
490.594
454.749
417.135
378.038
337.347
294.995
251.024
205.485
158.568
110.627
62.1753
13.8756
-33.1626
-77.2196
-116.462
-149.384
-174.854
-192.029
-200.305
-199.03
-187.875
-166.625
-134.892
-92.0719
-36.5352
32.9038
121.946
216.447
478.557
445.391
403.802
354.754
301.993
242.016
176.6
107.514
34.1502
-42.447
-121.74
-203.799
-287.993
-373.9
-460.895
-547.978
-633.881
-717.063
-795.645
-867.618
-930.822
-983.264
-1023.33
-1049.78
-1062.04
-1060.3
-1044.85
-1016.04
-974.269
-919.936
-853.607
-775.845
-687.061
-587.348
-476.592
-353.287
-217.399
-62.6614
88.69
506.51
530.062
551.835
569.291
580.103
583.654
578.959
566.334
547.317
523.042
494.873
464.319
431.904
397.879
362.495
325.608
287.099
246.951
205.143
161.789
117.169
71.7259
26.0549
-18.8078
-61.1971
-99.3319
-131.751
-157.301
-175.051
-184.317
-184.376
-174.795
-155.286
-125.424
-84.614
-31.3962
35.1448
119.491
207.767
443.138
411.57
372.085
325.655
275.911
219.504
158.152
93.5699
25.1591
-46.0835
-119.672
-195.712
-273.664
-353.195
-433.818
-514.691
-594.743
-672.636
-746.714
-815.161
-875.989
-927.307
-967.497
-995.354
-1010.08
-1011.68
-1000.18
-975.677
-938.382
-888.579
-826.711
-753.256
-668.592
-572.825
-465.905
-346.611
-215.186
-66.8979
77.1223
469.835
492.425
513.47
530.539
541.423
545.569
542.023
531.044
514.074
492.198
466.703
439.02
409.653
378.838
346.798
313.374
278.411
241.841
203.589
163.693
122.356
79.9414
36.9653
-5.61254
-46.1935
-83.0564
-114.785
-140.219
-158.37
-168.472
-169.749
-161.664
-143.857
-115.871
-77.1171
-26.3067
37.2245
116.833
199.078
410.285
380.207
342.674
298.661
251.693
198.555
140.923
80.4466
16.5478
-49.8226
-118.213
-188.767
-261.003
-334.675
-409.404
-484.48
-558.998
-631.808
-701.445
-766.282
-824.508
-874.341
-914.187
-942.889
-959.514
-963.915
-955.901
-935.35
-902.276
-856.832
-799.337
-730.171
-649.665
-557.935
-454.989
-339.875
-213.099
-71.3304
65.494
435.806
457.489
477.831
494.502
505.403
510.033
507.479
497.94
482.772
463.018
439.894
414.761
388.112
360.171
331.142
300.859
269.15
235.908
201.01
164.43
126.296
86.8929
46.6479
6.43359
-32.2282
-67.6738
-98.5386
-123.673
-142.049
-152.833
-155.205
-148.53
-132.379
-106.264
-69.6063
-21.2798
39.1437
114.004
190.421
379.802
351.116
315.403
273.636
229.228
179.104
124.889
68.1731
8.39965
-53.5207
-117.172
-182.713
-249.724
-318.013
-387.289
-456.967
-526.273
-594.219
-659.521
-720.731
-776.199
-824.264
-863.382
-892.44
-910.459
-917.151
-912.174
-895.206
-866.076
-824.799
-771.564
-706.647
-630.322
-542.706
-443.858
-333.083
-211.123
-75.9078
53.8717
404.219
425.037
444.698
460.966
471.837
476.864
475.165
466.891
453.317
435.445
414.433
391.576
367.355
341.988
315.671
288.238
259.505
229.341
197.583
164.152
129.11
92.6615
55.1494
17.3455
-19.3085
-53.2128
-83.0594
-107.723
-126.155
-137.466
-140.804
-135.445
-120.896
-96.6388
-62.1067
-16.3299
40.9066
111.04
181.837
351.51
324.13
290.118
250.446
208.416
161.077
110.015
56.7555
0.7722
-57.0733
-116.387
-177.343
-239.562
-302.905
-367.152
-431.803
-496.219
-559.543
-620.654
-678.266
-730.882
-776.967
-815.049
-844.041
-863
-871.52
-869.143
-855.386
-829.909
-792.586
-743.476
-682.747
-610.608
-527.168
-432.529
-326.235
-209.237
-80.5759
42.3236
374.882
394.878
413.876
429.736
440.542
445.891
444.931
437.772
425.614
409.425
390.302
369.481
347.436
324.384
300.513
275.66
249.641
222.308
193.468
163.004
130.918
97.3393
62.525
27.151
-7.42973
-39.6904
-68.3845
-92.4203
-110.746
-122.434
-126.606
-122.463
-109.453
-87.0324
-54.6454
-11.4693
42.5182
107.973
173.372
325.243
299.094
266.679
228.971
189.149
144.4
96.2562
46.1878
-6.31073
-60.4078
-115.742
-172.488
-230.309
-289.103
-348.706
-408.695
-468.533
-527.488
-584.575
-638.657
-688.378
-732.329
-769.129
-797.716
-817.211
-827.132
-826.941
-816.029
-793.904
-760.306
-715.166
-658.544
-590.574
-511.353
-421.019
-319.33
-207.42
-85.2847
30.9133
347.626
366.84
385.193
400.641
411.352
416.959
416.641
410.467
399.573
384.892
367.466
348.477
328.391
307.423
285.756
263.24
239.691
214.951
188.812
161.125
131.841
101.022
68.8458
35.8939
3.42348
-27.1158
-54.5424
-77.8122
-95.8809
-107.797
-112.672
-109.64
-98.099
-77.4834
-47.2499
-6.71136
43.9872
104.838
165.066
300.853
275.867
244.958
209.094
171.335
128.999
83.565
36.4497
-12.8274
-63.4754
-115.148
-168.026
-221.802
-276.404
-331.716
-387.382
-442.949
-497.781
-551.025
-601.671
-648.504
-690.222
-725.548
-753.451
-773.136
-784.079
-785.691
-777.267
-758.193
-728.075
-686.731
-634.11
-570.278
-495.302
-409.347
-312.367
-205.643
-89.9754
19.7095
322.296
340.761
358.49
373.529
384.117
389.924
390.163
384.866
375.107
361.784
345.89
328.553
310.233
291.146
271.471
251.071
229.767
207.399
183.748
158.643
131.996
103.81
74.1902
43.6259
13.2785
-15.4868
-41.5559
-63.9361
-81.6105
-93.6162
-99.0606
-97.0324
-86.8846
-68.0324
-39.9488
-2.06764
45.3227
101.668
156.959
278.202
254.319
224.834
190.704
154.881
114.799
71.8911
27.5188
-18.7765
-66.2362
-114.531
-163.845
-213.896
-264.64
-315.987
-367.644
-419.226
-470.185
-519.779
-567.107
-611.086
-650.522
-684.232
-711.226
-730.809
-742.437
-745.498
-739.221
-722.893
-696.008
-658.268
-609.533
-549.781
-479.052
-397.536
-305.341
-203.879
-94.5923
8.7772
298.753
316.499
333.622
348.252
358.695
364.657
365.382
360.869
352.131
340.035
325.529
309.69
292.97
275.585
257.713
239.228
219.962
199.756
178.39
155.675
131.491
105.796
78.6322
50.4027
22.1665
-4.79192
-29.4346
-50.8232
-67.9794
-79.9432
-85.8299
-84.6957
-75.8598
-58.7218
-32.7697
2.45
46.5352
98.4959
149.088
257.168
234.333
206.197
173.703
139.697
101.728
61.1795
19.3617
-24.1641
-68.6693
-113.844
-159.866
-206.48
-253.663
-301.346
-349.286
-397.156
-444.486
-490.622
-534.77
-575.956
-613.095
-645.094
-671.013
-690.249
-702.268
-706.456
-702.002
-688.122
-664.214
-629.884
-584.892
-529.146
-462.653
-385.601
-298.254
-202.092
-99.0784
-1.81973
276.867
293.924
310.457
324.678
334.961
341.039
342.187
338.377
330.563
319.582
306.338
291.86
276.593
260.751
244.513
227.764
210.348
192.112
172.837
152.325
130.433
107.08
82.2549
56.2825
30.1289
4.98639
-18.182
-38.498
-55.0277
-66.8299
-73.036
-72.6861
-65.0739
-49.5916
-25.7429
6.83152
47.6355
95.3535
141.49
237.636
215.797
188.942
157.996
125.703
89.7174
51.3787
11.9456
-29.0023
-70.7632
-113.048
-156.027
-199.468
-243.356
-287.654
-332.146
-376.562
-420.493
-463.365
-504.479
-542.954
-577.81
-608.039
-632.757
-651.446
-663.611
-668.645
-665.716
-653.994
-632.808
-601.678
-560.279
-508.442
-446.143
-373.575
-291.096
-200.255
-103.386
-12.0212
256.52
272.915
288.875
302.691
312.799
318.961
320.478
317.3
310.325
300.36
288.269
275.034
261.09
246.651
231.896
216.723
200.988
184.543
167.176
148.686
128.914
107.751
85.1385
61.3364
37.2138
13.8747
-7.79276
-26.9733
-42.7865
-54.3211
-60.7299
-61.0566
-54.5779
-40.6833
-18.8958
11.066
48.6361
92.267
134.194
219.5
198.612
172.972
143.495
112.818
78.7003
42.4369
5.23219
-33.3092
-72.5179
-112.12
-152.281
-192.781
-233.626
-274.786
-316.082
-357.285
-398.038
-437.837
-476.065
-511.932
-544.54
-572.978
-596.408
-614.394
-626.495
-632.122
-630.447
-620.612
-601.898
-573.752
-535.778
-487.743
-429.578
-361.473
-283.869
-198.337
-107.458
-21.7736
237.604
253.363
268.767
282.183
292.105
298.322
300.162
297.553
291.342
282.308
271.273
259.175
246.44
233.282
219.875
206.133
191.922
177.104
161.476
144.837
127.019
107.892
87.3629
65.6276
43.4695
21.9045
1.74554
-16.2574
-31.2805
-42.4542
-48.9583
-49.8582
-44.42
-32.0383
-12.2547
15.1435
49.5468
89.2656
127.228
202.663
182.683
158.201
130.119
100.969
68.6125
34.3013
-0.813546
-37.1057
-73.9359
-111.04
-148.585
-186.364
-224.386
-262.641
-300.973
-339.187
-376.973
-413.888
-449.379
-482.744
-513.166
-539.808
-561.905
-579.07
-590.934
-596.941
-596.271
-588.071
-571.586
-546.207
-511.481
-467.115
-413.007
-349.324
-276.568
-196.298
-111.25
-31.0237
220.019
235.166
250.03
263.05
272.779
279.028
281.15
279.056
273.543
265.364
255.301
244.246
232.619
220.63
208.451
196.01
183.183
169.844
155.798
140.849
124.826
107.583
89.001
69.2231
48.9499
29.1121
10.4519
-6.34904
-20.5268
-31.261
-37.7633
-39.1364
-34.6456
-23.6945
-5.8481
19.055
50.3817
86.3696
120.613
187.037
167.923
144.546
117.791
90.0868
59.3954
26.9224
-6.22892
-40.4142
-75.021
-109.801
-144.912
-180.164
-215.57
-251.131
-286.712
-322.148
-357.165
-391.376
-424.286
-455.265
-483.571
-508.443
-529.177
-545.436
-556.931
-563.132
-563.252
-556.451
-541.96
-519.135
-487.473
-446.634
-396.478
-337.155
-269.189
-194.116
-114.714
-39.7238
203.675
218.23
232.571
245.202
254.73
260.99
263.36
261.733
256.862
249.469
240.301
230.208
219.597
208.679
197.622
186.364
174.795
162.798
150.19
136.78
122.4
106.894
90.123
72.1862
53.7089
35.5399
18.3514
2.75898
-10.535
-20.7651
-27.1809
-28.9328
-25.2965
-15.6894
0.300218
22.7918
51.1479
83.5995
114.367
172.537
154.254
131.93
106.438
80.1056
50.9893
20.2511
-11.0536
-43.2622
-75.7902
-108.4
-141.245
-174.148
-207.125
-240.185
-273.212
-306.065
-338.503
-370.18
-400.659
-429.372
-455.645
-478.787
-498.156
-513.455
-524.47
-530.716
-531.439
-525.824
-513.107
-492.623
-463.836
-426.369
-380.046
-324.99
-261.734
-191.759
-117.813
-47.8361
188.487
202.473
216.304
228.554
237.875
244.128
246.716
245.514
241.232
234.566
226.225
217.019
207.345
197.409
187.377
177.197
166.771
155.992
144.688
132.68
119.799
105.888
90.7934
74.5784
57.8008
41.2306
25.4722
11.0802
-1.30722
-10.9834
-17.241
-19.2844
-16.41
-8.05641
6.16654
26.3456
51.8551
80.9705
108.501
159.088
141.599
120.282
95.9939
70.964
43.3401
14.2409
-15.3251
-45.6776
-76.2569
-106.839
-137.571
-168.287
-199.004
-229.742
-260.398
-290.848
-320.882
-350.191
-378.387
-404.955
-429.287
-450.751
-468.769
-483.079
-493.538
-499.703
-500.867
-496.248
-485.1
-466.754
-440.653
-406.389
-363.759
-312.858
-254.205
-189.204
-120.512
-55.3285
174.376
187.814
201.15
213.023
222.137
228.368
231.145
230.331
226.592
220.599
213.024
204.64
195.829
186.795
177.7
168.504
159.118
149.443
139.323
128.586
117.072
104.621
91.0722
76.4599
61.2793
46.2283
31.8481
18.6331
7.15946
-1.92678
-7.96536
-10.221
-8.01936
-0.824538
11.7296
29.7082
52.5106
78.4948
103.022
146.617
129.889
109.536
86.396
62.6041
36.396
8.84746
-19.0777
-47.6838
-76.4348
-105.121
-133.881
-162.558
-191.176
-219.754
-248.205
-276.42
-304.215
-331.315
-357.368
-381.914
-404.401
-424.252
-440.948
-454.261
-464.109
-470.095
-471.56
-467.771
-458.004
-441.6
-417.993
-386.759
-347.668
-300.786
-246.602
-186.432
-122.782
-62.1722
161.269
174.178
187.034
198.538
207.441
213.638
216.582
216.121
212.885
207.515
200.651
193.027
185.014
176.811
168.575
160.276
151.835
143.163
134.115
124.532
114.259
103.139
91.0105
77.8828
64.1955
50.5783
37.5143
25.4411
14.8752
6.40224
0.630423
-1.76686
-0.152867
5.97925
16.9708
32.8721
53.1179
76.1789
97.9304
135.058
119.061
99.6291
77.5855
54.9719
30.1072
4.02759
-22.3491
-49.3089
-76.3433
-103.253
-130.168
-156.944
-183.607
-210.178
-236.579
-262.716
-288.428
-313.465
-337.513
-360.157
-380.895
-399.206
-414.619
-426.945
-436.15
-441.881
-443.536
-440.428
-431.872
-417.223
-395.924
-367.539
-331.82
-288.802
-238.935
-183.424
-124.599
-68.3503
149.1
161.498
173.887
185.03
193.721
199.873
202.961
202.824
200.053
195.262
189.059
182.141
174.865
167.427
159.981
152.501
144.919
137.157
129.08
120.54
111.393
101.486
90.6556
78.8964
66.597
54.3248
42.5081
31.5324
21.8568
14.007
8.53779
6.06071
7.16798
12.3337
21.8742
35.8291
53.6803
74.027
93.2215
124.349
109.053
90.5042
69.5074
48.0157
24.4279
-0.260276
-25.1726
-50.5821
-76.0018
-101.244
-126.435
-151.437
-176.277
-200.978
-225.473
-249.678
-273.45
-296.565
-318.74
-339.6
-358.689
-375.537
-389.72
-401.078
-409.622
-415.046
-416.799
-414.245
-406.743
-393.678
-374.504
-348.784
-316.261
-276.934
-231.209
-180.173
-125.951
-73.8502
137.803
149.709
161.646
172.435
180.913
187.011
190.225
190.385
188.043
183.79
178.203
171.94
165.348
158.616
151.893
145.161
138.362
131.424
124.226
116.631
108.501
99.6944
90.0492
79.5463
68.5304
57.5112
46.8677
36.9372
28.124
20.8966
15.7563
13.2518
13.9277
18.2221
26.4262
38.5746
54.1976
72.0382
88.8869
114.433
99.8092
82.1069
62.1105
41.6877
19.3141
-4.05336
-27.5811
-51.5284
-75.4287
-99.1069
-122.683
-146.027
-169.167
-192.128
-214.849
-237.257
-259.224
-280.549
-300.976
-320.167
-337.707
-353.172
-366.18
-376.602
-384.486
-389.565
-391.343
-389.237
-382.651
-371.008
-353.783
-330.546
-301.031
-265.211
-223.436
-176.674
-126.827
-78.6678
127.322
138.752
150.25
160.694
168.959
174.995
178.317
178.748
176.804
173.052
168.039
162.385
156.425
150.344
144.286
138.239
132.152
125.961
119.557
112.814
105.605
97.7942
89.2265
79.8732
70.0386
60.1801
50.6322
41.6879
33.7013
27.0864
22.2908
19.8027
20.1172
23.6331
30.6172
41.1016
54.6693
70.2079
84.9132
105.256
91.2782
74.3865
55.3463
35.9428
14.7238
-7.39077
-29.6084
-52.174
-74.6438
-96.8521
-118.915
-140.708
-162.262
-183.601
-204.672
-225.409
-245.697
-265.357
-284.157
-301.789
-317.877
-332.041
-343.938
-353.463
-360.695
-365.407
-367.154
-365.406
-359.616
-349.248
-333.802
-312.865
-286.168
-253.659
-215.63
-172.926
-127.227
-82.8052
117.602
128.573
139.644
149.75
157.804
163.77
167.185
167.863
166.289
163.003
158.523
153.436
148.063
142.584
137.136
131.713
126.274
120.761
115.075
109.1
102.721
95.8098
88.2187
79.9126
71.1604
62.3716
53.84
45.8194
38.6173
32.5966
28.1528
25.7171
25.7329
28.5601
34.4402
43.4055
55.0913
68.5292
81.2833
96.7672
83.4105
67.2955
49.1702
30.7384
10.6185
-10.307
-31.2835
-52.5431
-73.6652
-94.4932
-115.137
-135.48
-155.552
-175.38
-194.914
-214.097
-232.826
-250.938
-268.223
-284.403
-299.137
-312.081
-322.93
-331.604
-338.204
-342.54
-344.214
-342.749
-337.649
-328.419
-314.593
-295.778
-271.706
-242.303
-207.806
-168.936
-127.153
-86.2708
108.59
119.119
129.775
139.551
147.396
153.285
156.778
157.683
156.451
153.598
149.616
145.056
140.227
135.302
130.415
125.564
120.713
115.814
110.775
105.493
99.8615
93.7603
87.0519
79.6966
71.9319
64.1237
56.5295
49.3672
42.9027
37.4513
33.3595
31.0041
30.7777
33.0014
37.8921
45.4821
55.4588
66.9904
77.9762
88.9206
76.1595
60.7896
43.5397
26.0344
6.96154
-12.8346
-32.6352
-52.6617
-72.5131
-92.0429
-111.355
-130.341
-149.031
-167.45
-185.553
-203.291
-220.571
-237.245
-253.122
-267.952
-281.424
-293.229
-303.098
-310.969
-316.963
-320.923
-322.495
-321.254
-316.752
-308.537
-296.182
-279.314
-257.674
-231.17
-199.981
-164.716
-126.618
-89.0813
100.239
110.341
120.596
130.049
137.685
143.493
147.051
148.162
147.247
144.797
141.278
137.207
132.882
128.469
124.097
119.769
115.453
111.108
106.654
101.995
97.0338
91.6618
85.7491
79.2541
72.3867
65.4728
58.7376
52.3674
46.5905
41.6786
37.9326
35.6783
35.2599
36.9604
40.9724
47.3287
55.7655
65.5787
74.9693
81.6719
69.4831
54.8273
38.4149
21.7939
3.71762
-15.005
-33.6916
-52.5517
-71.2051
-89.513
-107.576
-125.292
-142.69
-159.795
-176.567
-192.963
-208.897
-224.236
-238.808
-252.383
-264.684
-275.431
-284.385
-291.506
-296.924
-300.515
-301.968
-300.901
-296.917
-289.607
-278.582
-263.495
-244.097
-220.28
-192.177
-160.281
-125.638
-91.2568
92.5052
102.195
112.061
121.198
128.628
134.349
137.96
139.258
138.635
136.56
133.471
129.855
125.997
122.056
118.156
114.304
110.475
106.631
102.703
98.6032
94.2445
89.5265
84.3292
78.6101
72.5547
66.4527
60.5004
54.8565
49.7153
45.3095
41.898
39.7599
39.1933
40.4449
43.684
48.9437
56.0047
64.2792
72.2371
74.9798
63.3407
49.3699
33.7585
17.9811
0.854213
-16.8482
-34.4792
-52.2362
-69.7593
-86.9186
-103.809
-120.335
-136.526
-152.406
-167.94
-183.088
-197.772
-211.874
-225.235
-237.65
-248.865
-258.631
-266.736
-273.16
-278.037
-281.274
-282.595
-281.666
-278.131
-271.627
-261.8
-248.336
-230.993
-209.657
-184.412
-155.652
-124.236
-92.8229
85.3459
94.6371
104.126
112.955
120.18
125.811
129.463
130.931
130.577
128.85
126.16
122.966
119.539
116.034
112.567
109.149
105.761
102.37
98.9143
95.3163
91.4966
87.3639
82.8078
77.7866
72.4632
67.095
61.8526
56.8703
52.3129
48.3775
45.2853
43.273
42.5962
43.4671
46.0331
50.3268
56.169
63.0748
69.7533
68.8055
57.6947
44.3807
29.5358
14.5637
-1.65929
-18.392
-35.0223
-51.7367
-68.1933
-84.2715
-100.061
-115.474
-130.536
-145.274
-159.655
-173.643
-187.17
-200.125
-212.366
-223.708
-233.919
-242.779
-250.101
-255.878
-260.253
-263.153
-264.339
-263.516
-260.372
-254.585
-245.838
-233.844
-218.378
-199.319
-176.709
-150.852
-122.44
-93.8118
78.722
87.6288
96.752
105.281
112.303
117.839
121.521
123.142
123.036
121.63
119.311
116.508
113.479
110.374
107.304
104.282
101.293
98.311
95.2792
92.13
88.7919
85.1819
81.199
76.803
72.1372
67.4294
62.8275
58.4445
54.4192
50.9176
48.1266
46.2455
45.4907
46.0429
48.0286
51.4795
56.2511
61.9484
67.4908
63.1133
52.5097
39.8258
25.7139
11.5109
-3.85137
-19.6632
-35.3447
-51.0723
-66.523
-81.5834
-96.3401
-110.709
-124.718
-138.391
-151.7
-164.612
-177.065
-188.958
-200.165
-210.515
-219.801
-227.826
-234.427
-239.611
-243.52
-246.106
-247.157
-246.417
-243.615
-238.465
-230.687
-220.022
-206.263
-189.282
-169.089
-145.907
-120.279
-94.2569
72.5966
81.1326
89.9011
98.136
104.958
110.395
114.098
115.855
115.977
114.867
112.891
110.449
107.788
105.05
102.343
99.6806
97.0533
94.4389
91.7877
89.0396
86.1307
82.9863
79.5146
75.6772
71.6
67.484
63.4571
59.6139
56.0705
52.9657
50.4562
48.7079
47.9022
48.1912
49.6821
52.4046
56.244
60.8824
65.422
57.8692
47.7529
35.673
22.2626
8.79293
-5.74923
-20.6856
-35.4675
-50.2623
-64.7641
-78.8672
-92.6535
-106.046
-119.07
-131.751
-144.062
-155.975
-167.433
-178.347
-188.598
-198.034
-206.47
-213.728
-219.669
-224.308
-227.789
-230.083
-231.005
-230.332
-227.828
-223.244
-216.335
-206.868
-194.652
-179.561
-161.574
-140.845
-117.788
-94.1961
66.9354
75.1134
83.5382
91.486
98.1098
103.445
107.159
109.037
109.366
108.53
106.87
104.761
102.438
100.038
97.6606
95.3254
93.0248
90.7407
88.4299
86.0393
83.5121
80.7815
77.7646
74.4248
70.8722
67.2844
63.7714
60.412
57.3025
54.5583
52.3094
50.6928
49.8587
49.9336
51.0072
53.1067
56.1418
59.8594
63.5202
53.0414
43.3933
31.8924
19.1531
6.38307
-7.37773
-21.4826
-35.4119
-49.3245
-62.9311
-76.1331
-89.0088
-101.487
-113.592
-125.349
-136.732
-147.719
-158.256
-168.263
-177.634
-186.23
-193.884
-200.44
-205.777
-209.921
-213.013
-215.038
-215.838
-215.219
-212.977
-208.897