/*--------------------------------*- C++ -*----------------------------------*\
| =========                 |                                                 |
| \\      /  F ield         | OpenFOAM: The Open Source CFD Toolbox           |
|  \\    /   O peration     | Version:  v1806                                 |
|   \\  /    A nd           | Web:      www.OpenFOAM.com                      |
|    \\/     M anipulation  |                                                 |
\*---------------------------------------------------------------------------*/
FoamFile
{
    version     2.0;
    format      ascii;
    class       volScalarField;
    location    "278";
    object      p;
}
// * * * * * * * * * * * * * * * * * * * * * * * * * * * * * * * * * * * * * //

dimensions      [0 2 -2 0 0 0 0];


internalField   nonuniform List<scalar> 
10720
(
1304.21
1068.93
770.752
440.508
93.5052
-283.744
-654.02
-1004.11
-1337.98
-1636.94
-1902.73
-2136.18
-2336.64
-2505.58
-2642.99
-2746.32
-2818.81
-2854.8
-2860.39
-2827.89
-2760.17
-2651.83
-2512.86
-2347.24
-2173.02
-2017.48
-1876.89
-1733.79
-1587.29
-1438.96
-1288.33
-1135.12
-979.113
-819.542
-655.251
-481.096
-292.48
-57.7713
221.011
1509.03
1678.32
1817.08
1896.85
1917.25
1883.54
1775.86
1604.29
1401.36
1190.17
990.94
817.435
669.324
544.903
442.331
352.399
272.968
199.259
128.906
57.8515
-13.6891
-87.7511
-163.036
-236.143
-293.141
-327.348
-347.438
-356.934
-356.125
-344.612
-322.97
-291.984
-252.273
-203.765
-146.088
-76.2263
10.4306
137.107
332.028
1366.33
1191.61
977.238
728.247
452.108
150.248
-164.192
-480.749
-793.415
-1092.04
-1371.51
-1628.13
-1858.88
-2061.88
-2235.18
-2376.48
-2486.17
-2560.69
-2600.44
-2601.18
-2564.57
-2488.61
-2380.5
-2245.23
-2098.02
-1960.75
-1831.92
-1698.14
-1558.95
-1416.38
-1270.43
-1121.03
-968.116
-811.034
-648.687
-476.021
-288.575
-54.6661
218.812
1510.64
1634.91
1739.08
1808.3
1831.76
1803.99
1720.15
1590.18
1431.08
1257.98
1084.99
923.093
776.436
646.366
532.724
431.486
340.557
256.84
177.946
100.801
24.7407
-51.7138
-127.669
-199.885
-257.706
-295.485
-319.501
-332.696
-335.198
-326.767
-307.983
-279.59
-242.152
-195.585
-139.48
-70.8346
14.857
140.864
329.527
1317.25
1164.44
976.031
753.013
503.586
228.516
-64.7064
-365.414
-665.904
-958.753
-1236.15
-1493.46
-1726.97
-1933.77
-2111.56
-2258.61
-2373.7
-2454.31
-2499.58
-2508.39
-2480.9
-2416.37
-2319.92
-2197.3
-2061.16
-1929.56
-1803.94
-1674.17
-1538.88
-1399.79
-1256.96
-1110.23
-959.55
-804.291
-643.376
-471.833
-285.309
-52.6918
215.509
1442.73
1549.81
1638.95
1699.63
1723.75
1706.41
1642.84
1538.85
1404.81
1252.3
1093.52
939.117
795.321
665.026
549.147
445.935
353.186
268.347
188.943
112.282
37.0895
-37.7412
-111.595
-181.593
-239.385
-279.326
-305.255
-319.975
-323.86
-316.799
-299.335
-272.174
-235.847
-190.268
-134.982
-66.994
18.1559
143.223
325.313
1254.93
1125.83
966.125
777.317
565.532
329.098
74.2985
-191.365
-462.218
-731.717
-993.213
-1241.79
-1473.04
-1683.29
-1869.18
-2028.1
-2157.6
-2255.17
-2319.5
-2348.95
-2342.75
-2300.18
-2224.87
-2122.41
-2003.44
-1883.27
-1765.56
-1642.92
-1513.64
-1379.41
-1240.64
-1097.28
-949.385
-796.395
-637.283
-467.199
-281.944
-51.3092
211.273
1361.38
1452.47
1529.88
1584.79
1609.69
1600.26
1552.16
1469.46
1359.65
1231.19
1093.73
956.054
823.805
700.306
587.185
484.082
389.688
302.363
220.236
141.272
64.2563
-11.5613
-85.648
-155.421
-214.173
-256.598
-284.978
-302.031
-308.22
-303.419
-288.055
-262.78
-228.096
-183.918
-129.774
-62.7046
21.6329
145.252
320.585
1179.7
1066.34
925.66
759.042
572.252
362.036
133.461
-107.339
-356.351
-607.743
-855.629
-1095.19
-1321.64
-1530.75
-1718.72
-1882.31
-2018.51
-2124.69
-2198.74
-2238.8
-2243.78
-2213.47
-2150.94
-2061.64
-1954.74
-1843.01
-1731.04
-1613.69
-1489.13
-1358.96
-1223.78
-1083.59
-938.413
-787.738
-630.548
-462.096
-278.381
-50.2222
206.075
1273.45
1353.49
1422.51
1473.18
1498.69
1495.39
1459.49
1393.59
1303.22
1194.53
1075.07
952.099
830.56
713.938
604.445
502.713
408.324
320.362
237.498
158.18
81.2712
6.16118
-66.7092
-135.099
-193.624
-237.468
-267.667
-286.512
-294.464
-291.385
-277.643
-253.866
-220.533
-177.561
-124.448
-58.2647
25.1865
147.105
315.487
1102.95
1002.47
877.715
730.19
565.425
379.205
175.92
-39.5019
-264.389
-493.843
-723.044
-947.825
-1163.6
-1366.11
-1551.48
-1716.08
-1856.45
-1969.65
-2052.93
-2104.55
-2123.18
-2108.32
-2062.04
-1988.96
-1896.72
-1795.9
-1691.67
-1580.95
-1462.19
-1336.86
-1205.79
-1069.08
-926.834
-778.609
-623.45
-456.767
-274.806
-49.6127
199.895
1186.42
1257.79
1320.32
1367.74
1393.67
1395
1368.48
1315.78
1241.25
1149.52
1046.58
938.37
828.973
721.561
618.457
520.733
428.55
341.565
258.969
179.7
102.888
28.1286
-44.118
-111.83
-170.569
-216.011
-248.249
-269.076
-278.996
-277.891
-266.046
-244.032
-212.287
-170.715
-118.795
-53.6394
28.7664
148.665
309.948
1027.43
937.046
824.825
692.311
544.993
378.061
195.355
1.07492
-203.188
-413.282
-625.296
-835.756
-1040.41
-1235.22
-1416.33
-1579.87
-1722.16
-1839.93
-1930.16
-1990.65
-2019.74
-2016.57
-1982.75
-1922.38
-1842.08
-1750.61
-1653.23
-1548.49
-1435.12
-1314.41
-1187.33
-1054.08
-914.795
-769.083
-616.046
-451.253
-271.253
-49.4911
192.841
1102.84
1167.43
1224.87
1269.64
1295.79
1300.65
1281.45
1239.2
1177.49
1099.88
1011.17
916.24
818.37
720.272
624.167
531.294
442.209
357.063
275.511
196.945
120.803
46.8789
-24.3437
-91.0573
-149.576
-196.047
-229.892
-252.407
-264.06
-264.741
-254.64
-234.268
-204.024
-163.804
-113.063
-48.971
32.2906
149.88
304.029
955.192
873.085
771.241
651.24
518.532
368.029
203.198
27.7005
-157.591
-349.254
-544.053
-739.236
-931.103
-1115.98
-1290.19
-1449.94
-1591.44
-1711.26
-1806.14
-1873.59
-1911.86
-1919.86
-1898.51
-1851.11
-1783.12
-1701.72
-1612.02
-1513.84
-1406.31
-1290.6
-1167.8
-1038.24
-902.12
-759.089
-608.325
-445.582
-267.735
-49.8122
185.074
1024.03
1083.12
1136.4
1178.94
1205.13
1212.7
1199.22
1165.32
1113.99
1048.11
971.61
888.555
801.542
712.809
624.325
537.288
452.461
370.29
290.784
213.699
138.77
65.9874
-4.10741
-69.8643
-128.123
-175.447
-210.796
-234.972
-248.371
-250.883
-242.6
-223.96
-195.315
-156.543
-107.083
-44.173
35.7854
150.759
297.789
886.975
811.724
718.513
608.949
488.421
351.773
202.149
42.8496
-125.806
-300.906
-479.831
-660.461
-839.611
-1014.04
-1180.41
-1335.07
-1474.27
-1594.55
-1692.5
-1765.43
-1811.24
-1828.62
-1817.85
-1781.66
-1724.6
-1652.56
-1570.27
-1478.47
-1376.68
-1265.98
-1147.52
-1021.75
-888.889
-748.666
-600.309
-439.785
-264.28
-50.5638
176.705
950.348
1004.91
1054.71
1095.3
1121.38
1131.03
1122.08
1094.88
1052.02
995.885
929.767
857.105
779.958
700.128
619.28
538.464
458.497
379.988
303.179
228.135
154.861
83.5426
14.7833
-49.8737
-107.67
-155.526
-192.1
-217.749
-232.749
-236.981
-230.442
-213.487
-186.423
-149.109
-100.968
-39.318
39.2005
151.279
291.237
823.054
753.598
667.717
567.037
456.861
332.062
195.577
50.4204
-103.463
-263.565
-427.778
-594.489
-760.979
-924.536
-1082.15
-1230.41
-1365.8
-1484.85
-1584.15
-1660.83
-1712.6
-1738.07
-1736.86
-1711.1
-1664.46
-1601.67
-1526.96
-1441.69
-1345.8
-1240.29
-1126.33
-1004.49
-875.052
-737.782
-591.987
-433.864
-260.917
-51.7603
167.799
881.811
932.54
979.375
1018.21
1044.06
1055.31
1049.98
1028.21
992.274
944.255
886.946
823.312
755.012
683.468
610.056
535.635
460.964
386.695
313.217
240.8
169.668
100.17
32.9843
-30.4289
-87.5955
-135.728
-173.299
-200.278
-216.79
-222.692
-217.891
-202.646
-177.207
-141.41
-94.6632
-34.3828
42.5402
151.448
284.387
763.417
698.936
619.352
526.302
425.016
310.436
185.336
52.4986
-88.3372
-235.01
-385.82
-539.577
-693.983
-846.756
-995.288
-1136.51
-1267.11
-1383.78
-1483.13
-1562.24
-1618.64
-1650.81
-1657.85
-1641.29
-1604.08
-1549.98
-1482.69
-1403.91
-1313.91
-1213.64
-1104.29
-986.504
-860.61
-726.436
-583.362
-427.827
-257.668
-53.4058
158.385
818.199
865.62
909.872
947.132
972.662
985.126
982.694
965.355
935.141
893.898
844.059
788.236
727.775
663.8
597.437
529.336
460.13
390.447
320.738
251.397
182.805
115.449
50.0642
-11.9456
-68.2996
-116.449
-154.765
-182.894
-200.791
-208.266
-205.145
-191.581
-167.765
-133.51
-88.2124
-29.3964
45.7814
151.268
277.264
707.909
647.762
573.666
487.262
393.684
287.999
172.852
50.8482
-78.4365
-213.084
-351.712
-493.468
-636.426
-778.717
-918.087
-1051.81
-1176.88
-1290.17
-1388.42
-1468.71
-1528.43
-1565.99
-1580.13
-1571.77
-1543.2
-1497.37
-1437.37
-1365.05
-1280.97
-1186.02
-1081.38
-967.771
-845.557
-714.627
-574.433
-421.684
-254.549
-55.5021
148.494
759.233
803.768
845.736
881.531
906.675
920.056
919.951
906.251
880.784
845.231
801.744
752.654
699.092
641.955
582.152
520.14
456.411
391.513
325.889
259.993
194.305
129.405
66.0602
5.64283
-49.7074
-97.6237
-136.435
-165.526
-184.674
-193.627
-192.136
-180.238
-158.061
-125.388
-81.6064
-24.362
48.9161
150.751
269.894
656.325
599.99
530.723
450.165
363.343
265.47
159.081
46.639
-72.3856
-196.288
-323.894
-454.636
-586.895
-719.151
-849.51
-975.579
-1094.67
-1203.89
-1300.13
-1380.55
-1442.5
-1484.27
-1504.37
-1503.14
-1482.32
-1444.17
-1391.21
-1325.25
-1247.05
-1157.47
-1057.63
-948.295
-829.892
-702.349
-565.204
-415.442
-251.57
-58.0346
138.157
704.582
746.58
786.485
820.915
845.618
859.681
861.453
850.75
829.252
798.495
760.42
717.138
669.631
618.619
564.831
508.571
450.189
390.132
328.788
266.603
204.104
141.918
80.8392
22.2058
-31.9474
-79.3942
-118.453
-148.307
-168.56
-178.88
-178.949
-168.682
-148.141
-117.076
-74.8694
-19.2978
51.9298
149.903
262.305
608.419
555.474
490.502
415.131
334.288
243.332
144.695
40.7412
-69.1462
-183.413
-301.058
-421.723
-544.053
-666.816
-788.458
-906.904
-1019.74
-1124.37
-1217.87
-1297.52
-1360.69
-1405.58
-1430.57
-1435.49
-1421.59
-1390.55
-1344.33
-1284.6
-1212.22
-1128.01
-1033.03
-928.083
-813.613
-689.605
-555.677
-409.107
-248.741
-60.9836
127.414
653.931
693.654
731.696
764.834
789.058
803.602
806.893
798.68
780.512
753.822
720.374
682.11
639.898
594.338
546.021
495.124
441.87
386.597
329.609
271.307
212.212
152.966
94.3634
37.7025
-15.0605
-61.8067
-100.869
-131.278
-152.479
-164.045
-165.595
-156.921
-138.01
-108.58
-68.0096
-14.2156
54.8127
148.744
254.527
563.938
514.037
452.915
382.194
306.681
221.889
130.171
33.7835
-67.9247
-173.522
-282.158
-393.627
-506.797
-620.684
-733.992
-844.954
-951.452
-1051.15
-1141.37
-1219.54
-1283.08
-1330.1
-1359.01
-1369.13
-1361.31
-1336.74
-1296.9
-1243.21
-1176.55
-1097.7
-1007.63
-907.149
-796.727
-676.397
-545.857
-402.686
-246.064
-64.3287
116.312
606.977
644.636
680.964
712.888
736.599
751.464
755.985
749.846
734.488
711.259
681.785
647.861
610.285
569.563
526.189
480.241
431.834
381.194
328.538
274.198
218.656
162.53
106.588
52.0752
0.886064
-44.941
-83.77
-114.525
-136.506
-149.189
-152.128
-144.995
-127.7
-99.9253
-61.0467
-9.1311
57.5537
147.287
246.593
522.633
475.491
417.853
351.332
280.605
201.347
115.84
26.2394
-68.1201
-165.906
-266.393
-369.485
-474.221
-579.826
-685.246
-788.971
-889.162
-983.74
-1070.29
-1146.38
-1209.56
-1257.88
-1289.77
-1304.21
-1301.67
-1282.97
-1249.09
-1201.21
-1140.14
-1066.59
-981.458
-885.512
-779.246
-662.731
-535.748
-396.184
-243.544
-68.0367
104.902
563.429
599.205
633.943
664.713
687.887
702.947
708.459
704.055
691.082
670.816
644.766
614.61
581.09
544.655
505.722
464.298
420.417
374.203
325.783
275.41
223.5
170.618
117.484
65.2837
15.8495
-28.8537
-67.2236
-98.1135
-120.701
-134.361
-138.589
-132.937
-117.236
-91.1312
-53.998
-4.05881
60.1452
145.554
238.536
484.279
439.653
385.184
322.485
256.081
181.828
101.921
18.4404
-69.2887
-160.026
-253.122
-348.567
-445.558
-543.477
-641.478
-738.281
-832.295
-921.692
-1004.29
-1077.85
-1140.06
-1188.95
-1223.01
-1240.94
-1242.92
-1229.43
-1201.08
-1158.73
-1103.07
-1034.75
-954.556
-863.199
-761.184
-648.617
-525.36
-389.608
-241.177
-72.0735
93.2342
523.018
557.069
590.321
619.987
642.612
657.758
664.065
661.12
650.175
632.457
609.37
582.492
552.533
519.894
484.94
447.632
407.937
365.9
321.564
275.097
226.835
177.271
127.057
77.3054
29.784
-13.6028
-51.2991
-82.1158
-105.131
-119.623
-125.028
-120.788
-106.651
-82.2239
-46.8847
0.985372
62.5814
143.57
230.39
448.66
406.34
354.784
295.571
233.106
163.395
88.5736
10.631
-71.0911
-155.433
-241.812
-330.291
-420.175
-510.993
-602.052
-692.275
-780.309
-864.539
-943.022
-1013.71
-1074.45
-1123.3
-1158.77
-1179.46
-1185.24
-1176.34
-1153.05
-1115.91
-1065.48
-1002.27
-926.977
-840.245
-742.563
-634.069
-514.702
-382.958
-238.96
-76.399
81.3726
485.498
517.95
549.813
578.422
600.485
615.636
622.574
620.856
611.651
596.132
575.621
551.61
524.778
495.499
464.103
430.52
394.67
356.536
316.09
273.415
228.762
182.543
135.325
88.1324
42.6649
0.766148
-36.0577
-66.5994
-89.862
-105.036
-111.497
-108.591
-95.9789
-73.231
-39.7291
5.98666
64.8568
141.36
222.198
415.57
375.382
326.506
270.506
211.639
146.082
75.8934
2.99578
-73.2694
-151.796
-232.062
-314.177
-397.545
-481.796
-566.383
-650.396
-732.686
-811.843
-886.144
-953.732
-1012.6
-1060.89
-1097.13
-1119.9
-1128.8
-1123.89
-1105.17
-1072.91
-1027.46
-969.23
-898.784
-816.691
-723.41
-619.104
-503.782
-376.241
-236.882
-80.9691
69.3774
450.644
481.608
512.166
539.761
561.25
576.34
583.776
583.092
575.382
561.773
543.512
522.014
497.937
471.637
443.42
413.199
380.863
346.347
309.566
270.529
229.401
186.504
142.314
97.7648
54.4744
14.2166
-21.553
-51.6279
-74.9589
-90.6623
-98.0507
-96.3924
-85.2593
-64.1838
-32.5549
10.9287
66.9703
138.953
213.998
384.826
346.619
300.226
247.189
191.636
129.886
63.9447
-4.34843
-75.6319
-148.854
-223.535
-299.83
-377.211
-455.4
-533.971
-612.153
-688.97
-763.203
-833.32
-897.649
-954.352
-1001.66
-1038.12
-1062.35
-1073.76
-1072.26
-1057.63
-1029.87
-989.144
-935.727
-870.048
-792.586
-703.758
-603.743
-492.615
-369.458
-234.931
-85.7369
57.3118
418.254
447.827
477.153
503.772
524.682
539.652
547.478
547.668
541.251
529.308
513.021
493.736
472.094
448.441
423.062
395.867
366.728
335.547
302.191
266.605
228.878
189.244
148.084
106.229
65.2059
26.7199
-7.83177
-37.2605
-60.4852
-76.5631
-84.7468
-84.2427
-74.5332
-55.1157
-25.3884
15.7968
68.9212
136.378
205.828
356.257
319.896
275.814
225.53
173.034
114.796
52.7568
-11.3116
-78.0321
-146.4
-215.978
-286.939
-358.828
-431.428
-504.409
-577.131
-648.758
-718.239
-784.223
-845.215
-899.53
-945.51
-981.73
-1006.89
-1020.26
-1021.61
-1010.59
-986.952
-950.668
-901.868
-840.85
-767.989
-683.646
-588.01
-481.212
-362.606
-233.087
-90.6495
45.2443
388.148
416.412
444.568
470.246
490.579
505.385
513.508
514.441
509.142
498.657
484.109
466.781
447.298
425.998
403.156
378.684
352.446
324.322
294.144
261.806
227.328
190.863
152.699
113.555
74.8653
38.2583
5.06707
-23.5506
-46.5014
-62.8003
-71.6441
-72.1934
-63.8448
-46.0626
-18.2562
20.5752
70.7116
133.667
197.729
329.709
295.075
253.149
205.431
155.771
100.781
42.3464
-17.8356
-80.3574
-144.272
-209.168
-275.241
-342.079
-409.525
-477.329
-544.945
-611.675
-676.606
-738.554
-796.183
-847.961
-892.345
-927.947
-953.572
-968.386
-972.089
-964.205
-944.307
-912.163
-867.767
-811.278
-742.963
-663.12
-571.936
-469.59
-355.688
-231.331
-95.6507
33.246
360.151
387.184
414.222
438.993
458.753
473.361
481.706
483.266
478.941
469.741
456.735
441.141
423.577
404.376
383.805
361.782
338.17
312.836
285.589
256.284
224.885
191.467
156.229
119.787
83.4711
48.8262
17.1157
-10.5438
-33.0638
-49.4333
-58.802
-60.2985
-53.2408
-37.0628
-11.1866
25.2497
72.3446
130.85
189.741
305.034
272.022
232.118
186.801
139.774
87.8049
32.7078
-23.8824
-82.5392
-142.351
-202.944
-264.518
-326.707
-389.4
-452.407
-515.266
-577.388
-637.989
-696.029
-750.318
-799.465
-842.044
-876.728
-902.422
-918.235
-923.825
-918.634
-902.081
-873.767
-833.539
-781.426
-717.581
-642.231
-555.551
-457.765
-348.698
-229.637
-100.688
21.3824
334.11
359.983
385.953
409.847
429.041
443.423
451.925
454.016
450.541
442.479
430.842
416.796
400.947
383.623
365.085
345.262
324.023
301.227
276.67
250.182
221.677
191.165
158.761
124.982
91.0521
58.4261
28.2951
1.72058
-20.224
-36.5192
-46.2796
-48.6128
-42.7692
-28.1559
-4.2087
29.8054
73.8266
127.959
181.904
282.102
250.616
212.614
169.55
124.983
75.8257
23.8298
-29.434
-84.514
-140.546
-197.173
-254.605
-312.508
-370.809
-429.369
-487.8
-545.604
-602.097
-656.375
-707.379
-753.855
-794.486
-828.014
-853.44
-869.864
-876.925
-874.01
-860.422
-835.62
-799.307
-751.394
-691.919
-621.037
-538.897
-445.752
-341.636
-227.975
-105.702
9.72534
309.887
334.66
359.609
382.659
401.292
415.422
424.029
426.57
423.844
416.792
406.378
393.717
379.402
363.76
347.047
329.205
310.107
289.616
267.521
243.633
217.83
190.066
160.385
129.206
97.6483
67.0719
38.5927
13.2136
-8.0268
-24.1126
-34.1339
-37.192
-32.4807
-19.383
2.64771
34.2286
75.164
125.025
174.254
260.789
230.746
194.538
153.589
111.327
64.798
15.6932
-34.4792
-86.246
-138.779
-191.743
-245.35
-299.3
-353.547
-407.987
-462.298
-516.057
-568.672
-619.353
-667.155
-710.957
-749.543
-781.737
-806.613
-823.321
-831.478
-830.451
-819.459
-797.848
-765.193
-721.285
-666.065
-599.598
-522.008
-433.575
-334.492
-226.314
-110.632
-1.65759
287.352
311.08
335.053
357.285
375.363
389.224
397.894
400.82
398.752
392.6
383.284
371.867
358.933
344.803
329.731
313.67
296.505
278.102
258.251
236.753
213.457
188.274
161.186
132.526
103.303
74.7867
48.0093
23.9124
3.48957
-12.261
-22.4198
-26.0898
-22.4244
-10.7869
9.35343
38.5055
76.3649
122.077
166.827
240.984
212.308
177.795
138.84
98.7416
54.6732
8.26917
-39.0232
-87.7105
-136.998
-186.574
-236.644
-286.938
-337.436
-388.059
-438.536
-488.513
-537.478
-584.732
-629.442
-670.596
-707.087
-737.816
-761.924
-778.635
-787.559
-788.063
-779.316
-760.577
-731.314
-691.211
-640.102
-577.98
-504.936
-421.247
-327.267
-224.619
-115.42
-12.6996
266.389
289.121
312.155
333.596
351.13
364.71
373.404
376.659
375.174
369.829
361.501
351.208
339.518
326.751
313.156
298.699
283.278
266.765
248.956
229.646
208.666
185.892
161.256
135.012
108.07
81.599
56.5516
33.802
14.2927
-1.00986
-11.1894
-15.3602
-12.649
-2.40805
15.8773
42.6239
77.4372
119.144
159.653
222.584
195.203
162.296
125.224
87.1624
45.405
1.52959
-43.0736
-88.8923
-135.163
-181.597
-228.391
-275.305
-322.328
-369.414
-416.329
-462.773
-508.304
-552.308
-594.049
-632.608
-666.983
-696.16
-719.325
-735.806
-745.219
-746.938
-740.111
-723.933
-697.792
-661.275
-614.126
-556.254
-487.718
-408.799
-319.951
-222.857
-120.016
-23.3376
246.885
268.668
290.803
311.48
328.477
341.768
350.457
353.99
353.022
348.404
340.971
331.694
321.131
309.594
297.333
284.325
270.478
255.674
239.718
222.403
203.552
183.015
160.683
136.744
112.006
87.5464
64.2351
42.8785
24.3592
9.60274
-0.489826
-5.05342
-3.20382
5.71222
22.1907
46.571
78.3908
116.249
152.762
205.493
179.343
147.958
112.67
76.5271
36.9444
-4.55643
-46.6464
-89.7861
-133.249
-176.762
-220.521
-264.298
-308.105
-351.906
-395.508
-438.656
-480.966
-521.897
-560.796
-596.837
-629.105
-656.675
-678.775
-694.836
-704.493
-707.144
-701.938
-688.029
-664.743
-631.585
-588.222
-534.495
-470.409
-396.246
-312.54
-220.997
-124.36
-33.5151
228.742
249.619
270.892
290.829
307.3
320.296
328.954
332.723
332.216
328.255
321.634
313.282
303.741
293.321
282.266
270.565
258.138
244.878
230.6
215.102
198.2
179.731
159.553
137.792
115.171
92.6701
71.0822
51.1427
33.6723
19.5457
9.6377
4.78269
5.86454
13.5331
28.2662
50.3348
79.2328
113.417
146.177
189.621
164.644
134.704
101.108
66.7775
29.2435
-10.0241
-49.7567
-90.3919
-131.237
-172.029
-212.966
-253.835
-294.653
-335.408
-375.931
-416.006
-455.298
-493.331
-529.521
-563.131
-593.328
-619.261
-640.217
-655.71
-665.406
-668.745
-664.883
-652.967
-632.276
-602.25
-562.49
-512.77
-453.061
-383.615
-305.03
-218.993
-128.404
-43.1756
211.868
231.878
252.321
271.543
287.5
300.195
308.802
312.771
312.677
309.311
303.432
295.922
287.312
277.907
267.944
257.425
246.282
234.416
221.656
207.808
192.687
176.12
157.941
138.231
117.625
97.0154
77.1211
58.6052
42.2233
28.7943
19.1563
14.1065
14.5129
21.0172
34.075
53.9046
79.9739
110.667
139.918
174.887
151.027
122.463
90.4721
57.8568
22.259
-14.9064
-52.4241
-90.7127
-129.109
-167.367
-205.677
-243.842
-281.887
-319.811
-357.47
-394.681
-431.148
-466.456
-500.079
-531.358
-559.531
-583.829
-603.582
-618.394
-627.967
-631.78
-629.021
-618.839
-600.488
-573.366
-537.017
-491.16
-435.721
-370.934
-297.415
-216.823
-132.098
-52.2682
196.176
215.355
235.001
253.533
268.986
281.378
289.918
294.055
294.332
291.508
286.306
279.568
271.807
263.326
254.355
244.907
234.923
224.317
212.929
200.576
187.076
172.252
155.923
138.128
119.429
100.633
82.3857
65.2817
50.0107
37.3314
28.0365
22.8802
22.7018
28.128
39.5927
57.2698
80.6193
108.015
133.997
161.215
138.42
111.167
80.7022
49.7113
15.9436
-19.2386
-54.6735
-90.7599
-126.866
-162.756
-198.618
-234.267
-269.732
-305.025
-340.02
-374.563
-408.391
-441.135
-472.331
-501.383
-527.6
-550.28
-568.807
-582.855
-592.169
-596.279
-594.408
-585.725
-569.476
-545.03
-511.892
-469.735
-418.446
-358.225
-289.695
-214.453
-135.403
-60.7523
181.588
199.971
218.849
236.714
251.675
263.763
272.221
276.502
277.112
274.783
270.201
264.17
257.189
249.55
241.481
233.003
224.068
214.599
204.451
193.45
181.423
168.19
153.564
137.55
120.644
103.573
86.9122
71.1941
57.0404
45.147
36.2546
31.0719
30.3968
34.8338
44.7956
60.4206
81.1757
105.473
128.425
148.533
126.755
100.752
71.7398
42.2894
10.2547
-23.0543
-56.5286
-90.547
-124.505
-158.183
-191.758
-225.063
-258.127
-290.972
-323.49
-355.544
-386.907
-417.249
-446.156
-473.091
-497.427
-518.523
-535.817
-549.048
-558.001
-562.258
-561.089
-553.69
-539.318
-517.33
-487.202
-448.569
-401.286
-345.517
-281.871
-211.855
-138.28
-68.5927
168.029
185.651
203.788
221.007
235.488
247.274
255.639
260.04
260.949
259.073
255.063
249.683
243.415
236.546
229.3
221.702
213.716
205.275
196.244
186.465
175.772
163.989
150.925
136.56
121.328
105.885
90.7416
76.3686
63.3232
52.2373
43.7955
38.6566
37.5677
41.1069
49.6627
63.3476
81.6483
103.052
123.204
136.775
115.968
91.1592
63.5304
35.5429
5.15103
-26.3867
-58.0107
-90.0832
-122.025
-153.633
-185.073
-216.191
-247.021
-277.587
-307.797
-337.532
-366.595
-394.689
-421.442
-446.371
-468.909
-488.471
-504.547
-516.927
-525.443
-529.725
-529.095
-522.792
-510.088
-490.344
-463.021
-427.731
-384.294
-332.84
-273.94
-209.01
-140.697
-75.7575
155.432
172.321
189.747
206.341
220.353
231.838
240.101
244.601
245.783
244.322
240.838
236.056
230.445
224.282
217.785
210.987
203.86
196.346
188.325
179.648
170.161
159.694
148.056
135.21
121.536
107.619
93.9153
80.8358
68.8766
58.6066
50.6499
45.6149
44.1899
46.9226
54.1758
66.0426
82.0386
100.755
118.334
125.879
106.002
82.3326
56.0226
29.4261
0.591863
-29.2685
-59.1469
-89.3848
-119.434
-149.1
-178.544
-207.62
-236.367
-264.812
-292.873
-320.45
-347.367
-373.356
-398.088
-421.124
-441.949
-460.035
-474.918
-486.436
-494.463
-498.675
-498.45
-493.071
-481.845
-464.142
-439.423
-407.283
-367.518
-320.219
-265.913
-205.895
-142.63
-82.2274
143.732
159.919
176.658
192.648
206.204
217.391
225.542
230.125
231.552
230.472
227.474
223.245
218.237
212.723
206.91
200.839
194.49
187.813
180.701
173.018
164.62
155.345
145.005
133.552
121.317
108.825
96.4762
84.6299
73.7238
64.2647
56.8159
51.9347
50.246
52.2623
58.3199
68.4971
82.3482
98.5836
113.808
115.787
96.7992
74.2202
49.1679
23.8944
-3.46025
-31.7325
-59.9603
-88.4706
-116.738
-144.583
-172.158
-199.328
-226.131
-252.598
-278.659
-304.224
-329.139
-353.165
-376.002
-397.257
-416.46
-433.136
-446.866
-457.521
-465.026
-469.096
-469.163
-464.56
-454.636
-438.784
-416.471
-387.286
-351.007
-307.686
-257.795
-202.504
-144.064
-87.987
132.869
148.381
164.46
179.864
192.976
203.868
211.902
216.553
218.201
217.471
214.922
211.203
206.752
201.833
196.646
191.236
185.591
179.671
173.377
166.589
159.171
150.972
141.812
131.632
120.721
109.55
98.4672
87.7869
77.8907
69.2271
62.2994
57.6112
55.7244
57.1117
62.083
70.7059
82.5759
96.5363
109.615
106.446
88.3097
66.7728
42.9211
18.907
-7.04171
-33.8072
-60.4748
-87.3557
-113.947
-140.081
-165.906
-191.292
-216.282
-240.906
-265.102
-288.794
-311.844
-334.036
-355.102
-374.685
-392.359
-407.695
-420.317
-430.126
-437.091
-440.964
-441.231
-437.279
-428.5
-414.32
-394.221
-367.795
-334.805
-295.27
-249.597
-198.83
-144.985
-93.0303
122.788
137.652
153.093
167.933
180.611
191.212
199.123
203.826
205.675
205.268
203.134
199.887
195.95
191.575
186.961
182.153
177.147
171.908
166.352
160.367
153.831
146.602
138.51
129.489
119.792
109.837
99.931
90.344
81.4077
73.5151
67.1109
62.6461
60.6201
61.4629
65.4569
72.6626
82.7203
94.6067
105.741
97.805
80.4846
59.9446
37.239
14.4245
-10.1879
-35.5246
-60.716
-86.0572
-111.07
-135.597
-159.78
-183.498
-206.793
-229.698
-252.159
-274.106
-295.418
-315.902
-335.315
-353.332
-369.567
-383.637
-395.205
-404.195
-410.614
-414.252
-414.645
-411.235
-403.463
-390.788
-372.719
-348.855
-318.953
-282.997
-241.333
-194.871
-145.392
-97.3573
113.438
127.678
142.505
156.797
169.055
179.368
187.151
191.894
193.924
193.813
192.063
189.253
185.789
181.917
177.825
173.565
169.137
164.514
159.621
154.358
148.614
142.257
135.128
127.158
118.567
109.728
100.909
92.3402
84.3079
77.154
71.2675
67.048
64.9341
65.3122
68.4369
74.3634
82.7769
92.7867
102.166
89.8165
73.2786
53.6923
32.0819
10.4102
-12.931
-36.9122
-60.7054
-84.5913
-108.117
-131.133
-153.777
-175.933
-197.645
-218.947
-239.789
-260.113
-279.808
-298.7
-316.57
-333.126
-348.016
-360.894
-371.463
-379.666
-385.548
-388.926
-389.388
-386.429
-379.539
-368.217
-352.001
-330.507
-303.487
-270.897
-233.02
-190.634
-145.287
-100.975
104.768
118.41
132.643
146.406
158.254
168.284
175.936
180.707
182.9
183.061
181.666
179.26
176.232
172.821
169.208
165.446
161.541
157.473
153.176
148.56
143.526
137.952
131.689
124.669
117.084
109.264
101.442
93.8142
86.6264
80.173
74.7912
70.831
68.6736
68.6615
71.0219
75.8055
82.7412
91.0644
98.8688
82.4368
66.6482
47.9754
27.4116
6.82865
-15.3021
-37.9963
-60.465
-82.9769
-105.1
-126.696
-147.894
-168.588
-188.821
-208.627
-227.961
-246.773
-264.963
-282.375
-298.809
-314.003
-327.635
-339.398
-349.026
-356.485
-361.843
-364.949
-365.435
-362.851
-356.734
-346.625
-332.098
-312.785
-288.44
-258.998
-224.676
-186.13
-144.682
-103.897
96.7341
109.799
123.461
136.712
148.161
157.911
165.429
170.218
172.557
172.968
171.9
169.866
167.241
164.254
161.078
157.769
154.338
150.77
147.007
142.971
138.572
133.699
128.214
122.05
115.375
108.48
101.567
94.8047
88.3997
82.6044
77.7084
74.0146
71.8513
71.5178
73.2143
76.9875
82.6077
89.427
95.827
75.6243
60.5542
42.7557
23.1924
3.64785
-17.3315
-38.8026
-60.0168
-81.2289
-102.03
-122.288
-142.129
-161.454
-180.305
-198.715
-216.645
-234.05
-250.841
-266.877
-281.977
-295.902
-308.365
-319.087
-327.835
-334.593
-339.447
-342.277
-342.757
-340.485
-335.046
-326.024
-313.027
-295.713
-273.84
-247.323
-216.323
-181.376
-143.593
-106.144
89.2931
101.805
114.915
127.669
138.73
148.206
155.586
160.383
162.852
163.491
162.724
161.035
158.781
156.182
153.405
150.509
147.506
144.387
141.104
137.586
133.754
129.506
124.718
119.324
113.468
107.41
101.323
95.35
89.6653
84.4828
80.0491
76.6234
74.485
73.8926
75.0201
77.9102
82.3708
87.8599
93.0147
69.34
54.9589
37.9978
19.3906
0.835917
-19.047
-39.356
-59.3817
-79.3643
-98.9172
-117.918
-136.486
-154.527
-172.085
-189.192
-205.813
-221.91
-237.401
-252.16
-266.021
-278.771
-290.147
-299.902
-307.831
-313.932
-318.311
-320.868
-321.317
-319.306
-314.461
-306.411
-294.799
-279.31
-259.71
-235.898
-207.983
-176.393
-142.043
-107.74
82.4054
94.3835
106.963
119.236
129.92
139.125
146.364
151.159
153.744
154.591
154.101
152.729
150.816
148.573
146.161
143.638
141.022
138.308
135.453
132.398
129.071
125.381
121.215
116.509
111.39
106.084
100.744
95.4872
90.4609
85.8447
81.8464
78.6854
76.5971
75.8017
76.4484
78.5757
82.0247
86.3471
90.406
63.5473
49.8272
33.668
15.9748
-1.63549
-20.4749
-39.6796
-58.5784
-77.3992
-95.7744
-113.591
-130.962
-147.802
-164.151
-180.042
-195.445
-210.325
-224.609
-238.182
-250.896
-262.556
-272.926
-281.786
-288.955
-294.448
-298.38
-300.673
-301.077
-299.283
-294.96
-287.779
-277.418
-263.588
-246.067
-224.744
-199.681
-171.207
-140.059
-108.718
76.033
87.4981
99.5641
111.373
121.688
130.627
137.723
142.508
145.193
146.23
145.995
144.914
143.313
141.396
139.316
137.132
134.865
132.513
130.042
127.399
124.52
121.327
117.714
113.623
109.162
104.532
99.863
95.2528
90.8244
86.7274
83.1354
80.2322
78.2135
77.2647
77.5115
78.9881
81.5642
84.8729
87.9746
58.2123
45.1257
29.7352
12.9152
-3.79368
-21.6397
-39.796
-57.6265
-75.3473
-92.6113
-109.313
-125.561
-141.274
-156.493
-171.25
-185.519
-199.268
-212.432
-224.907
-236.559
-247.211
-256.652
-264.685
-271.155
-276.085
-279.6
-281.643
-281.994
-280.382
-276.52
-270.115
-260.88
-248.553
-232.927
-213.881
-191.44
-165.843
-137.673
-109.111
70.1408
81.1124
92.6831
104.041
113.999
122.675
129.627
134.392
137.164
138.372
138.37
137.555
136.241
134.622
132.843
130.965
129.012
126.985
124.856
122.58
120.1
117.346
114.225
110.68
106.807
102.78
98.7112
94.6816
90.793
87.1689
83.953
81.2974
79.3632
78.304
78.2243
79.1533
80.9849
83.4215
85.6943
53.3025
40.824
26.1693
10.1845
-5.66526
-22.565
-39.7246
-56.5421
-73.2231
-89.4388
-105.091
-120.283
-134.942
-149.104
-162.804
-176.016
-188.715
-200.841
-212.3
-222.97
-232.692
-241.277
-248.549
-254.376
-258.79
-261.921
-263.728
-264.023
-262.567
-259.11
-253.397
-245.174
-234.205
-220.297
-203.326
-183.283
-160.334
-134.922
-108.959
64.6959
75.1923
86.2852
97.2067
106.815
115.234
122.038
126.777
129.623
130.984
131.193
130.622
129.569
128.221
126.716
125.115
123.444
121.708
119.883
117.931
115.804
113.44
110.753
107.694
104.343
100.852
97.3178
93.8071
90.403
87.207
84.3366
81.9164
80.0774
78.9448
78.604
79.079
80.2837
81.978
83.5399
48.788
36.8927
22.9428
7.75653
-7.27395
-23.2723
-39.4853
-55.3427
-71.04
-86.2663
-100.93
-115.132
-128.802
-141.978
-154.691
-166.921
-178.645
-189.808
-200.327
-210.091
-218.957
-226.755
-233.329
-238.567
-242.509
-245.289
-246.878
-247.115
-245.794
-242.696
-237.601
-230.285
-220.537
-208.182
-193.093
-175.235
-154.71
-131.842
-108.303
59.6674
69.7062
80.3378