/*--------------------------------*- C++ -*----------------------------------*\
| =========                 |                                                 |
| \\      /  F ield         | OpenFOAM: The Open Source CFD Toolbox           |
|  \\    /   O peration     | Version:  v1806                                 |
|   \\  /    A nd           | Web:      www.OpenFOAM.com                      |
|    \\/     M anipulation  |                                                 |
\*---------------------------------------------------------------------------*/
FoamFile
{
    version     2.0;
    format      ascii;
    class       volScalarField;
    location    "285";
    object      p;
}
// * * * * * * * * * * * * * * * * * * * * * * * * * * * * * * * * * * * * * //

dimensions      [0 2 -2 0 0 0 0];


internalField   nonuniform List<scalar> 
10720
(
953.573
667.557
315.515
-59.4002
-438.705
-843.021
-1229.07
-1583.61
-1914.57
-2202.76
-2452.19
-2665.35
-2842.64
-2986.37
-3097.19
-3172.24
-3216.98
-3226.17
-3204.67
-3144
-3047.99
-2911.63
-2745.75
-2554.65
-2357.05
-2180.89
-2021.96
-1861.96
-1699.76
-1536.87
-1372.67
-1206.78
-1038.87
-868.088
-693.152
-508.681
-310.219
-65.6013
217.466
1214.89
1440.08
1649.71
1811.17
1899.58
1920.86
1883.54
1773.44
1610.14
1424.32
1239.25
1069.24
917.516
785.412
672.802
572.332
482.22
398.241
318.191
238.241
158.381
76.5763
-6.12239
-86.6417
-151.911
-195.418
-225.143
-244.14
-252.748
-250.698
-238.472
-216.759
-186.14
-146.583
-97.7879
-36.906
40.4335
156.841
340.304
1124.32
911.641
659.24
374.816
67.2116
-262.104
-598.092
-929.735
-1251.47
-1553.09
-1830.23
-2079.95
-2299.93
-2488.92
-2645.47
-2768.1
-2857.86
-2910.5
-2926.73
-2903.29
-2842.25
-2741.68
-2609.33
-2450.53
-2281.16
-2123.9
-1977.01
-1826.44
-1671.61
-1514.48
-1354.97
-1192.87
-1028.06
-859.752
-686.752
-503.766
-306.469
-62.6263
215.342
1305.87
1469.12
1618.36
1740.88
1817.35
1842.62
1812.46
1726.68
1600.34
1450.94
1293.66
1139.81
995.215
863.093
744.643
637.084
538.906
447.544
360.937
276.289
192.912
109.372
26.4265
-52.9451
-118.713
-165.357
-198.552
-220.984
-232.726
-233.555
-223.985
-204.697
-176.228
-138.526
-91.2457
-31.5404
44.8673
160.639
337.89
1106.83
919.059
695.161
436.905
155.276
-148.204
-465.416
-784.46
-1097.22
-1396.55
-1674.75
-1927.78
-2152.66
-2347.16
-2509.6
-2638.97
-2734.01
-2792.8
-2816.11
-2802.09
-2751.35
-2663.37
-2543.78
-2398.73
-2241.43
-2090.59
-1947.46
-1801.37
-1650.8
-1497.43
-1341.22
-1181.93
-1019.43
-853.004
-681.472
-499.639
-303.293
-60.7441
212.295
1266.71
1410.46
1540.56
1646.75
1714.69
1741.95
1723.71
1658.99
1557.19
1429.65
1288.65
1145.16
1006.29
876.335
757.493
649.134
549.881
457.806
370.882
286.741
204.203
122.204
41.2607
-35.9715
-101.622
-150.201
-185.131
-208.985
-222
-224.076
-215.717
-197.569
-170.136
-133.36
-86.8493
-27.7606
48.1451
163.03
333.834
1082.18
923.915
733.972
515.165
275.26
13.0308
-264.347
-548.568
-833.445
-1112.36
-1378.66
-1627.65
-1855.31
-2058.44
-2234.07
-2380.06
-2494.22
-2574.78
-2621.21
-2631.34
-2604.55
-2540.69
-2443.93
-2320.4
-2181.32
-2042.55
-1907.75
-1769.14
-1624.83
-1476.53
-1324.55
-1168.77
-1009.16
-845.079
-675.408
-495.08
-300.04
-59.4939
208.27
1217.09
1338.36
1449.92
1542.93
1605.22
1634.3
1625.16
1576.85
1495.95
1390.56
1270.26
1144.05
1018.16
896.896
782.871
676.618
577.554
484.599
396.305
310.941
227.437
145.097
64.3996
-12.2459
-78.4798
-129.137
-166.19
-192.068
-207.14
-211.269
-204.856
-188.478
-162.599
-127.158
-81.738
-23.5253
51.6124
165.121
329.352
1031.15
891.664
723.605
529.439
316.457
81.5802
-169.314
-429.254
-693.751
-956.712
-1212.04
-1454.95
-1680.85
-1885.76
-2066.2
-2219.36
-2342.54
-2433.72
-2490.81
-2512.63
-2498.05
-2447.61
-2364.83
-2255.59
-2129.54
-1999.92
-1871.37
-1738.46
-1599.23
-1455.27
-1307.12
-1154.69
-997.954
-836.302
-668.643
-490.025
-296.592
-58.5761
203.183
1150.32
1257.03
1356.12
1439.76
1497.84
1528.29
1526.32
1491.04
1427.05
1340.15
1237.65
1126.88
1013.14
900.529
791.979
688.789
591.167
498.72
410.543
325.417
242.408
161.009
81.6557
6.47548
-59.3883
-111.242
-149.896
-177.386
-194.075
-199.807
-194.909
-179.929
-155.315
-121.005
-76.5522
-19.1689
55.1435
167.044
324.555
974.758
851.115
701.874
529.65
341.241
132.399
-91.6844
-325.408
-565.691
-807.306
-1045.21
-1275.14
-1492.57
-1693.38
-1873.89
-2030.78
-2160.84
-2261.51
-2330.49
-2366.42
-2367.98
-2335.14
-2270.4
-2178.84
-2068.59
-1950.66
-1830.38
-1704.5
-1571.38
-1432.49
-1288.62
-1139.82
-986.125
-827.023
-661.486
-484.725
-293.134
-58.1726
197.03
1080.71
1175.55
1264.64
1340.97
1395.74
1427.09
1430.53
1405.3
1354.78
1283.29
1196.56
1100.53
999.535
897.153
796.219
698.321
604.136
513.778
426.833
342.554
260.289
179.754
101.429
27.2592
-38.4828
-91.568
-131.925
-161.124
-179.538
-187.03
-183.857
-170.499
-147.362
-114.366
-71.0373
-14.6231
58.7082
168.695
319.355
915.2
803.899
669.435
514.384
345.404
157.475
-44.8281
-256.7
-476.227
-698.914
-920.591
-1137.64
-1345.76
-1540.93
-1719.38
-1877.46
-2011.66
-2119.05
-2196.93
-2243.4
-2256.8
-2236.9
-2185.82
-2108.1
-2010.74
-1902.9
-1790.02
-1670.57
-1543.19
-1409.21
-1269.56
-1124.39
-973.795
-817.32
-654.002
-479.231
-289.709
-58.3016
189.911
1010.86
1096.47
1177.69
1248.19
1300.2
1332.06
1339.63
1322.21
1282.43
1223.61
1150.32
1067.39
978.285
885.999
793.107
701.218
611.29
523.842
438.873
356.062
275.068
195.821
118.856
45.9471
-19.3139
-73.137
-114.826
-145.475
-165.429
-174.537
-172.972
-161.138
-139.403
-107.675
-65.4556
-10.042
62.2169
170.013
313.801
856.163
755.083
632.965
492.389
339.869
169.995
-13.0814
-205.168
-405.146
-609.272
-814.05
-1016.57
-1213.03
-1399.7
-1572.93
-1729.03
-1864.34
-1975.68
-2060.01
-2115.29
-2139.78
-2132.76
-2095.71
-2032.3
-1948.36
-1851.43
-1746.84
-1634.42
-1513.26
-1384.56
-1249.41
-1108.12
-960.826
-807.146
-646.199
-473.576
-286.322
-58.9055
181.991
943.347
1021.4
1096.15
1161.82
1211.43
1243.49
1254.19
1242.86
1211.64
1163.19
1101.24
1029.8
951.625
869.147
784.586
699.405
614.666
531.108
449.024
368.427
289.259
211.655
136.224
64.6147
-0.0588064
-54.3942
-97.2614
-129.293
-150.752
-161.472
-161.549
-151.296
-131.036
-100.657
-59.6378
-5.33395
65.7016
171.01
307.946
798.902
706.314
594.507
466.038
327.294
172.725
6.09274
-168.824
-351.529
-538.812
-727.815
-916.265
-1100.84
-1278.2
-1444.97
-1597.54
-1732.23
-1845.74
-1934.87
-1997.21
-2030.83
-2034.53
-2009.33
-1958.29
-1886.29
-1799.52
-1702.96
-1597.4
-1482.38
-1359.01
-1228.45
-1091.14
-947.27
-796.526
-638.093
-467.793
-282.998
-59.9525
173.408
879.027
950.828
1020.15
1081.77
1129.2
1161.19
1174.3
1167.75
1143.38
1103.43
1051
989.489
921.085
847.751
771.33
693.061
613.975
534.9
456.305
378.464
301.571
225.947
152.276
82.1227
18.2421
-36.2923
-80.0682
-113.296
-136.123
-148.354
-150.008
-141.297
-122.499
-93.4777
-53.6918
-0.570875
69.1122
171.665
301.796
744.24
658.865
555.854
437.747
310.776
169.382
17.07
-142.722
-309.925
-481.758
-655.909
-830.617
-1003.02
-1170.28
-1329.33
-1476.73
-1608.99
-1722.74
-1814.71
-1882.27
-1923.4
-1936.63
-1922.34
-1882.95
-1822.41
-1745.73
-1657.4
-1558.9
-1450.19
-1332.33
-1206.54
-1073.36
-933.083
-785.427
-629.674
-461.886
-279.766
-61.4504
164.253
818.373
884.867
949.564
1007.68
1053.13
1084.84
1099.77
1097
1078.14
1045.16
1000.72
947.711
887.94
822.966
754.298
682.927
609.766
535.623
461.056
386.503
312.345
239.058
167.401
98.8738
35.9759
-18.4866
-62.9277
-97.1907
-121.277
-134.948
-138.148
-130.985
-113.675
-86.0567
-47.5706
4.26843
72.453
171.986
295.364
692.511
613.343
517.914
408.737
291.921
161.939
22.0958
-124.447
-277.863
-435.75
-596.236
-758.004
-918.606
-1075.64
-1226.39
-1367.75
-1496.39
-1609.05
-1702.42
-1773.77
-1820.92
-1842.16
-1837.32
-1808.25
-1758.14
-1690.99
-1610.75
-1519.26
-1416.88
-1304.62
-1183.71
-1054.82
-918.263
-773.851
-620.942
-455.862
-276.65
-63.4033
154.566
761.476
823.403
884.084
939.128
982.729
1014.04
1030.32
1030.54
1016.15
988.914
951.15
905.411
853.194
795.747
734.3
669.606
602.405
533.428
463.247
392.381
321.335
250.705
181.302
114.578
52.8604
-1.26321
-46.1113
-81.2203
-106.429
-121.439
-126.12
-120.474
-104.648
-78.4519
-41.3131
9.15603
75.7012
171.974
288.675
643.828
570.078
481.275
379.901
271.922
151.916
23.0288
-111.797
-252.929
-398.235
-546.188
-695.832
-845.097
-991.995
-1134.17
-1268.8
-1392.86
-1503.23
-1596.68
-1670.42
-1722.14
-1750.06
-1753.48
-1733.7
-1693.23
-1635.18
-1562.91
-1478.45
-1382.44
-1275.87
-1159.97
-1035.48
-902.803
-761.792
-611.898
-449.732
-273.668
-65.8133
144.383
708.291
766.232
823.377
875.657
917.55
948.35
965.606
968.205
957.444
934.96
902.807
863.264
817.616
766.88
712.056
653.683
592.328
528.607
463.04
396.167
328.56
260.884
193.974
129.252
68.9174
15.3898
-29.608
-65.3651
-91.5496
-107.794
-113.888
-109.733
-95.3929
-70.6489
-34.9145
14.0873
78.8481
171.64
281.754
598.185
529.208
446.25
351.754
251.544
140.331
21.1192
-103.316
-233.482
-367.48
-504.015
-642.437
-780.995
-918.06
-1051.63
-1179.22
-1298.07
-1405.28
-1497.75
-1572.73
-1627.78
-1661.13
-1671.57
-1659.96
-1628.19
-1578.66
-1514.12
-1436.59
-1346.93
-1246.1
-1135.31
-1015.36
-886.699
-749.246
-602.544
-443.503
-270.831
-68.667
133.734
658.657
713.096
767.072
816.845
857.133
887.364
905.299
909.776
901.985
883.445
856.011
821.752
781.804
737.01
688.182
635.693
579.952
521.443
460.601
397.923
333.999
269.516
205.32
142.796
84.0457
31.3571
-13.5367
-49.7344
-76.7383
-94.0987
-101.523
-98.817
-85.9518
-62.6773
-28.3978
19.0441
81.8791
170.989
274.627
555.491
490.759
413.008
324.632
231.313
127.908
17.2903
-97.8864
-218.242
-342.049
-468.201
-596.279
-724.815
-852.472
-977.596
-1098.02
-1211.24
-1314.62
-1405.24
-1480.41
-1537.67
-1575.25
-1591.61
-1587.12
-1563.19
-1521.59
-1464.48
-1393.76
-1310.41
-1215.36
-1109.76
-994.462
-869.949
-736.211
-592.883
-437.18
-268.151
-71.9455
122.657
612.395
663.7
714.834
762.299
801.074
830.678
849.059
855.028
849.668
834.42
810.97
781.225
746.208
706.645
663.206
616.134
565.698
512.255
456.135
397.759
337.686
276.592
215.308
155.17
98.1997
46.5846
2.04312
-34.3815
-62.0374
-80.385
-89.0479
-87.741
-76.3356
-54.5473
-21.7735
24.0138
84.784
170.04
267.322
515.612
454.694
381.617
298.732
211.57
115.138
12.2142
-94.6835
-206.224
-320.818
-437.532
-556.116
-675.336
-794.119
-911.075
-1024.34
-1131.71
-1230.79
-1318.89
-1393.43
-1451.94
-1492.68
-1513.89
-1515.52
-1498.55
-1464.23
-1414.19
-1350.1
-1272.96
-1183.69
-1083.34
-972.79
-852.558
-722.692
-582.916
-430.768
-265.626
-75.6283
111.204
569.306
617.778
666.324
711.664
748.994
777.932
796.579
803.722
800.363
787.865
767.792
741.907
711.164
676.196
637.573
595.443
549.959
501.355
449.858
395.802
339.678
282.12
223.914
166.33
111.322
61.0005
17.05
-19.3855
-47.5181
-66.7152
-76.5137
-76.5456
-66.5759
-46.2834
-15.0617
28.9802
87.551
168.805
259.87
478.393
420.933
352.086
274.166
192.539
102.384
6.38224
-93.0684
-196.661
-302.923
-411.063
-520.952
-631.542
-741.982
-851.133
-957.393
-1058.83
-1153.31
-1238.37
-1311.57
-1370.51
-1413.44
-1438.53
-1445.34
-1434.49
-1406.79
-1363.41
-1305.72
-1234.68
-1151.14
-1056.08
-950.366
-834.536
-708.691
-572.649
-424.272
-263.263
-79.6807
99.4237
529.178
575.071
621.245
664.606
700.556
728.806
747.575
755.637
753.926
743.742
726.54
703.967
676.925
645.986
611.649
573.988
533.076
489.039
442.004
392.211
340.066
286.131
231.126
176.247
123.378
74.5521
31.4191
-4.8131
-33.2418
-53.1422
-63.9645
-65.265
-56.6993
-37.9075
-8.28099
33.9277
90.1718
167.306
252.303
443.688
389.377
324.38
250.981
174.36
89.8903
0.141675
-92.5761
-188.978
-287.697
-388.031
-489.945
-592.567
-695.215
-796.965
-896.454
-992.001
-1081.71
-1163.35
-1234.66
-1293.33
-1337.62
-1365.71
-1376.81
-1371.24
-1349.51
-1312.33
-1260.76
-1195.66
-1117.78
-1028.03
-927.216
-815.894
-694.217
-562.088
-417.698
-261.056
-84.0677
87.3683
491.809
535.346
579.331
620.835
655.467
683.006
701.779
710.559
710.202
701.972
687.218
667.494
643.666
616.262
585.728
552.094
515.367
475.595
432.811
387.164
338.965
288.689
236.969
184.913
134.332
87.1885
45.0855
9.26595
-19.2749
-39.7263
-51.4528
-53.9416
-46.7402
-29.447
-1.45376
38.8396
92.6392
165.563
244.653
411.34
359.915
298.454
229.18
157.127
77.8211
-6.23838
-92.851
-182.723
-274.579
-367.792
-462.416
-557.692
-653.1
-747.877
-840.872
-930.647
-1015.52
-1093.48
-1162.46
-1220.29
-1265.2
-1295.49
-1310.07
-1309.04
-1292.61
-1261.15
-1215.38
-1156.01
-1083.7
-999.241
-903.371
-796.655
-679.282
-551.242
-411.045
-259
-88.7473
75.1033
457.006
498.371
540.327
580.089
613.454
640.272
658.954
668.281
669.049
662.469
649.813
632.551
611.519
587.215
560.049
530.026
497.108
461.28
422.504
380.838
336.5
289.867
241.477
192.335
144.168
98.8716
57.9931
22.7875
-5.68187
-26.5273
-39.0316
-42.6193
-36.7341
-20.9308
5.39646
43.7
94.947
163.602
236.96
381.196
332.434
274.227
208.754
140.874
66.2979
-12.5722
-93.6135
-177.541
-263.14
-349.854
-437.793
-526.309
-614.987
-703.227
-790.046
-874.221
-954.272
-1028.41
-1094.75
-1151.26
-1196.19
-1227.97
-1245.3
-1248.06
-1236.3
-1210.05
-1169.74
-1115.87
-1048.99
-969.769
-878.874
-776.844
-663.902
-540.119
-404.318
-257.086
-93.6743
62.6909
424.59
463.944
504.011
542.126
574.27
600.364
618.88
628.618
630.315
625.136
614.285
599.156
580.562
558.981
534.799
508.008
478.539
446.335
411.3
373.416
332.808
289.757
244.697
198.529
152.882
109.574
70.0947
35.6921
7.47435
-13.6063
-26.7569
-31.346
-26.721
-12.3916
12.2447
48.4912
97.0922
161.448
229.26
353.114
306.823
251.627
189.661
125.625
55.3868
-18.7202
-94.6698
-173.16
-253.039
-333.801
-415.608
-497.888
-580.329
-662.459
-743.445
-822.239
-897.558
-967.805
-1031.27
-1086.08
-1130.54
-1163.18
-1182.59
-1188.49
-1180.77
-1159.22
-1123.98
-1075.36
-1013.75
-939.692
-853.773
-756.492
-648.096
-528.73
-397.516
-255.297
-98.8
50.1961
394.394
431.879
470.175
506.732
537.703
563.064
581.358
591.395
593.86
589.878
580.588
567.315
550.853
531.67
510.129
486.223
459.867
430.973
399.403
365.074
328.034
288.468
246.706
203.535
160.48
119.276
81.3507
47.9255
20.1332
-1.02345
-14.6863
-20.1716
-16.743
-3.86404
19.0634
53.1971
99.0727
159.128
221.588
326.96
282.967
230.572
171.861
111.371
45.1365
-24.5904
-95.8624
-169.365
-244
-319.31
-395.483
-472.024
-548.693
-625.119
-700.612
-774.267
-844.975
-911.321
-971.766
-1024.6
-1068.18
-1101.14
-1122.04
-1130.47
-1126.21
-1108.85
-1078.28
-1034.61
-978.077
-909.09
-828.127
-735.639
-631.889
-517.086
-390.637
-253.614
-104.07
37.6899
366.27
402.003
438.633
473.71
503.554
528.187
546.213
556.459
559.557
556.595
548.657
537.008
522.418
505.347
486.148
464.815
441.261
415.38
386.999
355.988
322.326
286.114
247.583
207.399
166.979
127.972
91.7304
59.4404
32.2386
11.1617
-2.87774
-9.1481
-6.84537
4.61484
25.8245
57.8005
100.888
156.673
213.983
302.606
260.761
210.976
155.297
98.0985
35.5674
-30.1111
-97.0756
-165.982
-235.798
-306.098
-377.094
-448.343
-519.671
-590.796
-661.123
-729.9
-796.157
-858.649
-915.993
-966.626
-1009
-1041.84
-1063.72
-1074.13
-1072.77
-1059.11
-1032.81
-993.774
-942.1
-878.053
-801.999
-714.328
-615.309
-505.202
-383.679
-252.014
-109.425
25.2457
340.07
374.16
409.213
442.884
471.643
495.556
513.279
523.656
527.277
525.192
518.434
508.205
495.263
480.06
462.94
443.905
422.868
399.714
374.251
346.316
315.83
282.817
247.416
210.18
172.412
135.665
101.215
70.1979
43.7388
22.8923
8.61114
1.67068
2.92473
13.0058
32.4982
62.2853
102.541
154.108
206.484
279.935
240.1
192.761
139.917
85.7724
26.6867
-35.2422
-98.2224
-162.893
-228.262
-293.948
-360.17
-426.537
-492.924
-559.118
-624.615
-688.776
-750.767
-809.489
-863.707
-911.996
-952.919
-985.25
-1007.67
-1019.57
-1020.6
-1010.15
-987.713
-952.993
-905.938
-846.679
-775.464
-692.612
-598.385
-493.092
-376.637
-250.471
-114.813
12.9316
315.66
348.208
381.768
414.096
441.814
465.014
482.406
492.852
496.9
495.573
489.846
480.869
469.386
455.839
440.566
423.579
404.8
384.109
361.307
336.205
308.683
278.697
246.303
211.949
176.821
142.371
109.794
80.1662
54.5876
34.1145
19.7237
12.2301
12.519
21.2685
39.0544
66.6349
104.033
151.463
199.124
258.834
220.889
175.846
125.659
74.3667
18.4886
-39.9545
-99.2425
-159.989
-221.258
-282.685
-344.502
-406.357
-468.167
-529.776
-590.759
-650.574
-708.492
-763.556
-814.662
-860.518
-899.794
-931.322
-953.902
-966.852
-969.818
-962.136
-943.152
-912.415
-869.721
-815.072
-748.598
-670.549
-581.158
-480.772
-369.506
-248.951
-120.17
0.822098
292.921
324.013
356.158
387.207
413.92
436.414
453.453
463.918
468.321
467.647
462.827
454.957
444.765
432.689
419.061
403.905
387.15
368.681
348.296
325.793
301.016
273.873
244.346
212.784
180.257
148.113
117.466
89.3243
64.7465
44.7776
30.4065
22.4757
21.8871
29.361
45.4617
70.8334
105.37
148.767
191.94
239.199
203.037
160.156
112.463
63.8422
10.9601
-44.2326
-100.087
-157.197
-214.666
-272.153
-329.897
-387.583
-445.158
-502.505
-559.273
-615.001
-669.054
-720.594
-768.634
-812.016
-849.506
-879.998
-902.416
-916.046
-920.534
-915.194
-899.27
-872.177
-833.575
-783.337
-721.494
-648.198
-563.663
-468.261
-362.277
-247.423
-125.435
-11.0124
271.74
301.454
332.253
362.078
387.822
409.622
426.297
436.741
441.434
441.326
437.305
430.418
421.378
410.614
398.453
384.932
369.991
353.521
335.325
315.194
292.95
268.458
241.643
212.765
182.777
152.928
124.241
97.6577
74.1837
54.8391
40.6084
32.3542
30.9804
37.2407
51.6896
74.8654
106.556
146.045
184.962
220.935
186.457
145.616
100.271
54.1569
4.08038
-48.0756
-100.731
-154.458
-208.399
-262.238
-316.21
-370.031
-423.682
-477.072
-529.906
-581.797
-632.194
-680.358
-725.412
-766.309
-801.925
-831.207
-853.201
-867.189
-872.831
-869.443
-856.2
-832.414
-797.626
-751.594
-694.235
-625.628
-545.95
-455.573
-354.947
-245.847
-130.546
-22.5022
252.013
280.42
309.937
338.589
363.399
384.519
400.817
411.211
416.14
416.524
413.212
407.202
399.19
389.598
378.75
366.691
353.375
338.703
322.485
304.513
284.593
262.56
238.292
211.97
184.443
156.853
130.136
105.161
82.8743
64.2587
50.2819
41.8142
39.7508
44.8666
57.706
78.7163
107.597
143.321
178.22
203.954
171.068
132.158
89.0267
45.2702
-2.17231
-51.4854
-101.152
-151.727
-202.385
-252.838
-303.312
-353.556
-403.562
-453.276
-502.444
-550.739
-597.684
-642.626
-684.792
-723.228
-756.914
-784.859
-806.217
-820.291
-826.772
-824.988
-814.072
-793.261
-762.001
-719.95
-666.922
-602.91
-528.056
-442.737
-347.504
-244.188
-135.45
-33.5811
233.641
260.808
289.101
316.632
340.54
360.996
376.91
387.225
392.345
393.161
390.478
385.253
378.163
369.623
359.951
349.203
337.346
324.289
309.856
293.839
276.042
256.279
234.389
210.489
185.324
159.937
135.176
111.838
90.8025
73.0049
59.3843
50.8079
48.1503
52.1976
63.4813
82.3713
108.501
140.618
171.738
188.169
156.795
119.711
78.6759
37.1388
-7.82589
-54.4696
-101.344
-148.973
-196.574
-243.877
-291.106
-338.024
-384.65
-430.944
-476.694
-521.623
-565.317
-607.199
-646.582
-682.608
-714.342
-740.869
-761.424
-775.363
-782.405
-781.908
-772.993
-754.841
-726.828
-688.519
-639.645
-580.121
-510.037
-429.766
-339.943
-242.412
-140.086
-44.1896
216.536
242.523
269.649
296.104
319.142
338.949
354.476
364.69
369.964
371.157
369.039
364.519
358.26
350.664
342.048
332.477
321.926
310.32
297.494
283.247
267.383
249.706
230.025
208.401
185.488
162.23
139.394
117.699
97.9593
81.0525
67.8797
59.2907
56.1338
59.1935
68.9869
85.8167
109.27
137.955
165.538
173.504
143.565
108.213
69.164
29.7217
-12.9099
-57.0435
-101.297
-146.172
-190.921
-235.286
-279.495
-323.327
-366.808
-409.923
-452.491
-494.273
-534.911
-573.895
-610.61
-644.291
-674.082
-699.134
-718.771
-732.395
-739.763
-740.277
-733.058
-717.266
-692.222
-657.415
-612.504
-557.331
-491.945
-416.688
-332.257
-240.473
-144.404
-54.2681
200.614
225.478
251.486
276.907
299.109
318.281
333.422
343.516
348.913
350.439
348.827
344.943
339.433
332.691
325.024
316.51
307.133
296.83
285.448
272.801
258.693
242.922
225.281
205.785
185.003
163.787
142.826
122.764
104.344
88.3841
75.7365
67.2248
63.6604
65.8174
74.1939
89.0397
109.914
135.349
159.636
159.886
131.311
97.6061
60.4388
22.9772
-17.4506
-59.2218
-101.014
-143.307
-185.388
-227.015
-268.41
-309.369
-349.928
-390.085
-429.685
-468.528
-506.296
-542.544
-576.719
-608.134
-636.009
-659.568
-678.191
-691.36
-698.863
-700.144
-694.35
-680.637
-658.288
-626.743
-585.595
-534.623
-473.827
-403.529
-324.439
-238.344
-148.349
-63.7625
185.797
209.589
234.529
258.959
280.352
298.906
313.662
323.624
329.116
330.936
329.778
326.472
321.638
315.669
308.859
301.295
292.974
283.839
273.756
262.549
250.03
235.997
220.233
202.715
183.938
164.667
145.515
127.056
109.964
94.9893
82.9314
74.5764
70.693
72.0339
79.0771
92.028
110.434
132.813
154.043
147.246
119.97
87.8314
52.4519
16.8647
-21.4808
-61.0241
-100.501
-140.371
-179.955
-219.023
-257.793
-296.077
-333.913
-371.316
-408.151
-444.249
-479.329
-512.995
-544.758
-573.996
-600.002
-622.066
-639.622
-652.228
-659.704
-661.545
-656.938
-645.043
-625.131
-596.605
-559.008
-512.07
-455.744
-390.31
-316.487
-235.988
-151.881
-72.6293
172.014
194.784
218.698
242.176
262.789
280.742
295.114
304.935
310.501
312.58
311.833
309.049
304.832
299.561
293.526
286.818
279.445
271.361
262.444
252.534
241.451
228.996
214.949
199.26
182.358
164.925
147.505
130.607
114.832
100.865
89.4465
81.3183
77.2001
77.8128
83.6129
94.7705
110.835
130.357
148.764
135.521
109.483
78.8359
45.1554
11.3447
-25.0303
-62.4698
-99.7682
-137.362
-174.604
-211.279
-247.596
-283.384
-318.684
-353.521
-387.78
-421.313
-453.875
-485.115
-514.595
-541.753
-565.95
-586.534
-602.991
-614.958
-622.279
-624.507
-620.871
-610.558
-592.839
-567.095
-532.838
-489.75
-437.745
-377.062
-308.399
-233.377
-154.958
-80.8304
159.198
180.991
203.921
226.483
246.344
263.712
277.705
287.377
292.996
295.305
294.93
292.624
288.967
284.33
278.995
273.061
266.541
259.4
251.53
242.784
232.995
221.971
209.492
195.487
180.326
164.619
148.845
133.448
118.966
106.015
95.2729
87.4305
83.1547
83.1278
87.7806
97.2566
111.119
127.987
143.802
124.651
99.7936
70.5686
38.5048
6.37957
-28.1282
-63.579
-98.8214
-134.274
-169.317
-203.752
-237.778
-271.236
-304.173
-336.618
-368.474
-399.612
-429.82
-458.782
-486.105
-511.285
-533.74
-552.878
-568.232
-579.504
-586.573
-589.04
-586.189
-577.246
-561.49
-538.3
-507.163
-467.733
-419.884
-363.812
-300.174
-230.487
-157.546
-88.3308
147.285
168.144
190.131
211.811
230.946
247.745
261.366
270.88
276.539
279.051
279.014
277.141
273.995
269.936
265.237
260.001
254.248
247.953
241.024
233.323
224.698
214.966
203.912
191.45
177.9
163.803
149.58
135.619
122.392
110.45
100.407
92.8989
88.5363
87.9566
91.5625
99.4772
111.287
125.705
139.153
114.579
90.8498
62.9814
32.457
1.93324
-30.8052
-64.3733
-97.6763
-131.11
-164.087
-196.421
-228.302
-259.583
-290.316
-320.532
-350.148
-379.053
-407.062
-433.886
-459.18
-482.484
-503.272
-521.008
-535.266
-545.813
-552.556
-555.145
-552.923
-545.156
-531.153
-510.294
-482.064
-446.089
-402.214
-350.59
-291.821
-227.296
-159.618
-95.1083
136.217
156.181
177.263
198.096
216.53
232.777
246.029
255.383
261.065
263.758
264.027
262.551
259.872
256.339
252.217
247.612
242.55
237.017
230.929
224.166
216.586
208.018
198.254
187.202
175.134
162.531
149.761
137.159
125.138
114.187
104.853
97.717
93.3311
92.2826
94.9445
101.424
111.338
123.511
134.807
105.255
82.6021
56.029
26.9714
-2.03039
-33.0891
-64.8754
-96.3449
-127.877
-158.911
-189.273
-219.145
-248.393
-277.066
-305.202
-332.729
-359.551
-385.502
-410.328
-433.714
-455.248
-474.45
-490.838
-504.025
-513.83
-520.193
-522.812
-521.085
-514.326
-501.879
-483.145
-457.607
-424.881
-384.785
-337.425
-283.343
-223.795
-161.156
-101.145
125.938
145.045
165.259
185.276
203.033
218.743
231.634
240.823
246.517
249.369
249.918
248.804
246.552
243.5
239.902
235.867
231.428
226.578
221.244
215.321
208.678
201.156
192.559
182.787
172.077
160.852
149.434
138.11
127.238
117.247
108.623
101.886
97.5318
96.0946
97.9159
103.09
111.271
121.4
130.752
96.6271
75.0046
49.6683
22.0095
-5.54442
-35.0078
-65.1042
-94.8408
-124.58
-153.784
-182.294
-210.284
-237.627
-264.378
-290.574
-316.153
-341.031
-365.062
-388.019
-409.617
-429.483
-447.184
-462.284
-474.432
-483.497
-489.447
-492.023
-490.679
-484.782
-473.714
-456.907
-433.855
-404.167
-367.644
-324.348
-274.752
-219.975
-162.147
-106.432
116.398
134.683
154.062
173.295
190.397
205.587
218.122
227.143
232.838
235.832
236.636
235.853
233.992
231.377
228.256
224.737
220.86
216.622
211.964
206.791
200.986
194.403
186.857
178.247
168.774
158.814
148.646
138.514
128.727
119.658
111.732
105.411
101.138
99.3873
100.47
104.471
111.082
119.366
126.972
88.6508
68.0136
43.8592
17.5344
-8.64129
-36.5892
-65.0837
-93.181
-121.226
-148.707
-175.475
-201.7
-227.261
-252.214
-276.599
-300.361
-323.428
-345.668
-366.879
-386.805
-405.106
-421.388
-435.264
-446.418
-454.757
-460.273
-462.75
-461.697
-456.534
-446.69
-431.626
-410.857
-383.998
-350.834
-311.389
-266.062
-215.834
-162.587
-110.967
107.548
125.045
143.622
162.099
178.569
193.252
205.439
214.291
219.976
223.094
224.129
223.651
222.147
219.932
217.244
214.192
210.82
207.133
203.079
198.577
193.521
187.778
181.175
173.614
165.265
156.46
147.44
138.414
129.643
121.449
114.203
108.309
104.155
102.16
102.605
105.564
110.767
117.399
123.447
81.2822
61.5883
38.5632
13.5123
-11.3515
-37.8584
-64.8334
-91.3783
-117.822
-143.68
-168.811
-193.379
-217.272
-240.544
-263.238
-285.305
-306.683
-327.255
-346.837
-365.198
-382.035
-396.987
-409.707
-419.913
-427.545
-432.622
-434.962
-434.126
-429.588
-420.824
-407.333
-388.656
-364.419
-334.396
-298.577
-257.292
-211.379
-162.476
-114.754
99.341
116.084
133.888
151.638
167.498
181.689
193.533
202.215
207.882
211.109
212.353
212.153
210.976
209.126
206.831
204.202
201.285
198.091
194.578
190.673
186.286
181.292
175.535
168.917
161.586
153.831
145.861
137.851
130.025
122.656
116.064
110.596
106.594
104.419
104.321
106.366
110.322
115.487
120.154
74.4808
55.6891
33.7447
9.90993
-13.7047
-38.84
-64.3728
-89.4474
-114.379
-138.706
-162.298
-185.31
-207.639
-229.341
-250.456
-270.942
-290.746
-309.763
-327.828
-344.731
-360.199
-373.905
-385.538
-394.848
-401.804
-406.445
-408.62
-407.943
-403.937
-396.128
-384.053
-367.285
-345.466
-318.365
-285.944
-248.461
-206.621
-161.826
-117.808
91.7362
107.754
124.817
141.864
157.135
170.849
182.358
190.867
196.508
199.829
201.263
201.316
200.438
198.921
196.983
194.735
192.229
189.476
186.445
183.074
179.28
174.955
169.954
164.183
157.767
150.962
143.947
136.868
129.914
123.315
117.344
112.298
108.472
106.175
105.624
106.879
109.742
113.618
117.071
68.2082
50.2806
29.3694
6.69628
-15.7277
-39.5587
-63.7213
-87.4035
-110.905
-133.788
-155.93
-177.481
-198.346
-218.578
-238.219
-257.231
-275.57
-293.139
-309.792
-325.338
-339.53
-352.073
-362.689
-371.157
-377.472
-381.686
-383.683
-383.117
-379.566
-372.6
-361.799
-346.767
-327.168
-302.773
-273.516
-239.591
-201.577
-160.654
-120.147
84.6933
100.016
116.365
132.736
147.437
160.687
171.866
180.202
185.809
189.211
190.815
191.1
190.494
189.28
187.666
185.763
183.625
181.267
178.666
175.769
172.504
168.773
164.445
159.431
153.838
147.888
141.736
135.504
129.348
123.463
118.077
113.443
109.811
107.442
106.522
107.105
109.022
111.776
114.172
62.4284
45.3282
25.4058
3.84205
-17.4475
-40.037
-62.8981
-85.2612
-107.409
-128.93
-149.708
-169.888
-189.379
-208.237
-226.501
-244.139
-261.113
-277.336
-292.676
-306.96
-319.966
-331.428
-341.096
-348.777
-354.487
-358.293
-360.104
-359.615
-356.453
-350.232
-340.573
-327.117
-309.549
-287.645
-261.32
-230.707
-196.27
-158.981
-121.797
78.175
92.8294
108.492
124.211
138.361
151.16
162.016
170.177
175.743
179.213
180.97
181.465
181.107
180.168
178.848
177.256
175.448
173.443
171.225
168.749
165.952
162.747
159.017
154.679
149.821
144.639
139.264
133.798
128.37
123.141
118.302
114.064
110.638
108.24
107.028
107.049
108.16
109.948
111.431
57.1072
40.7999
21.8235
1.31966
-18.8881
-40.2965
-61.921
-83.0335
-103.903
-124.137
-143.632
-162.522
-180.727
-198.297
-215.277
-231.635
-247.337
-262.31
-276.43
-289.544
-301.45
-311.906
-320.696
-327.646
-332.791
-336.211
-337.834
-337.396
-334.567
-329.005
-320.371
-308.341
-292.624
-273.004
-249.38
-221.836
-190.726
-156.837
-122.787
72.1455
86.1585
101.161
116.251
129.867
142.228
152.767
160.753
166.271
169.796
171.69
172.374
172.241
171.552
170.497
169.185
167.672
165.983
164.105
162.001
159.618
156.879
153.679
149.941
145.739
141.242
136.564
131.786
127.017
122.387
118.056
114.196
110.982
108.592
107.158
106.717
107.151
108.119
108.823
52.2133
36.6652
18.5948
-0.897064
-20.0728
-40.3571
-60.8077
-80.7347
-100.394
-119.414
-137.699
-155.379
-172.377
-188.745
-204.524
-219.689
-234.211
-248.021
-261.01
-273.04
-283.925
-293.454
-301.429
-307.704
-312.325
-315.381
-316.823
-316.418
-313.876
-308.897
-301.181
-290.438
-276.401
-258.866
-237.721
-213.003
-184.974
-154.254
-123.154
66.5717
79.9687
94.335
108.818
121.919
133.854
144.081
151.891
157.354
160.923
162.937
163.792
163.863
163.399
162.583
161.522
160.274
158.865
157.287
155.513
153.495
151.168
148.436
145.229
141.61
137.723
133.665
129.505
125.328
121.243
117.377
113.874
110.876
108.525
106.93
106.119
105.994
106.275
106.324
47.7164
32.896
15.6923
-2.83212
-21.0246
-40.2384
-59.5731
-78.376
-96.8904
-114.766
-131.912
-148.454
-164.322
-179.565
-194.224
-208.278
-221.701
-234.432
-246.374
-257.399
-267.343
-276.014
-283.239
-288.893
-293.031
-295.75
-297.017
-296.632
-294.34
-289.878
-282.985
-273.4
-260.884
-245.244
-226.361
-204.235
-179.046
-151.269
-122.936
61.4226
74.2276
87.9821
101.879
114.481
126.001
135.922
143.556
148.958
152.558
154.678
155.685
155.939
155.678
155.077
154.241
153.229
152.068
150.757
149.273
147.577
145.611
143.292
140.554
137.449
134.103
130.597
126.986
123.34
119.746
116.307
113.138
110.354
108.067
106.364
105.265
104.688
104.405
103.909
43.5886
29.4655
13.0914
-4.50872
-21.7638
-39.958
-58.233
-75.9705
-93.4021
-110.196
-126.27
-141.743
-156.552
-170.743
-184.358
-197.377
-209.78
-221.511
-232.482
-242.579
-251.655
-259.537
-266.072
-271.156
-274.851
-277.261
-278.365
-277.991
-275.917
-271.915
-265.757
-257.213
-246.069
-232.145
-215.318
-195.558
-172.977
-147.922
-122.175
56.669
68.905
82.0704
95.402