/*--------------------------------*- C++ -*----------------------------------*\
| =========                 |                                                 |
| \\      /  F ield         | OpenFOAM: The Open Source CFD Toolbox           |
|  \\    /   O peration     | Version:  v1806                                 |
|   \\  /    A nd           | Web:      www.OpenFOAM.com                      |
|    \\/     M anipulation  |                                                 |
\*---------------------------------------------------------------------------*/
FoamFile
{
    version     2.0;
    format      ascii;
    class       volScalarField;
    location    "292";
    object      p;
}
// * * * * * * * * * * * * * * * * * * * * * * * * * * * * * * * * * * * * * //

dimensions      [0 2 -2 0 0 0 0];


internalField   nonuniform List<scalar> 
10720
(
525.132
190.777
-212.474
-628.384
-1035.01
-1461.21
-1857.46
-2210.65
-2533.1
-2805.24
-3033.33
-3221.65
-3371.58
-3486.33
-3566.5
-3611.25
-3627.36
-3607.5
-3556.12
-3465.05
-3339.11
-3173.49
-2979.74
-2762.47
-2540.95
-2343.72
-2166.06
-1988.8
-1810.62
-1632.92
-1454.97
-1276.24
-1096.33
-914.242
-728.601
-533.776
-325.569
-71.3509
214.129
843.19
1124.03
1402.36
1642.63
1817.71
1906.71
1924.05
1880.92
1769.38
1615.07
1448.96
1288.41
1138.62
1003.18
884.02
775.94
677.618
585.413
497.36
409.937
322.974
234.476
145.283
58.1714
-14.6171
-66.7309
-105.452
-133.509
-151.098
-158.044
-154.848
-142.11
-120.354
-89.5618
-49.5034
2.4957
70.551
176.614
348.224
832.821
582.912
293.751
-24.2978
-361.209
-715.526
-1070.27
-1414
-1741.71
-2043.25
-2315.08
-2554.98
-2761.39
-2933.7
-3071.51
-3173.9
-3241.44
-3269.44
-3260.61
-3211.54
-3124.68
-2998.21
-2840.47
-2657.17
-2464.83
-2286.91
-2121.42
-1953.65
-1782.81
-1610.86
-1437.56
-1262.61
-1085.76
-906.129
-722.406
-529.053
-322
-68.5118
212.081
1051.38
1253.4
1446.14
1619.25
1752.81
1832.19
1854.69
1819.93
1732.36
1610.27
1471.96
1330.03
1191.2
1060.08
939.399
827.778
724.339
627.047
534.205
443.336
353.769
264.135
175.079
89.3428
16.357
-38.4807
-80.2711
-111.409
-131.948
-141.61
-140.892
-130.413
-110.676
-81.646
-43.0395
7.82614
74.9855
180.45
345.913
850.558
628.354
369.999
77.7241
-234.475
-564.278
-903.105
-1237.85
-1560.01
-1862.87
-2138.88
-2384.7
-2598.13
-2777.66
-2922.38
-3031.22
-3103.82
-3139.58
-3139.3
-3101.06
-3025.77
-2913.18
-2769.45
-2601.15
-2422.06
-2251.41
-2090.31
-1927.52
-1761.34
-1593.41
-1423.6
-1251.57
-1077.12
-899.411
-717.188
-525.014
-318.934
-66.7255
209.368
1044.74
1225.54
1396.87
1548.56
1664.44
1736.85
1763.23
1741.59
1675.15
1575.26
1454.82
1325.26
1194.43
1067.66
948.381
837.15
733.426
635.894
542.992
452.706
363.988
275.839
188.705
105.04
32.2606
-24.2934
-67.6366
-100.081
-121.795
-132.606
-132.996
-123.569
-104.796
-76.632
-38.7473
11.5418
78.239
182.872
342.052
873.498
686.546
467.105
219.268
-47.5764
-334.143
-632.402
-933.31
-1230.18
-1516.38
-1785.31
-2032.55
-2254.53
-2448.49
-2611.91
-2743
-2840.33
-2903.28
-2930.15
-2919.26
-2870.48
-2784.12
-2664.89
-2519.46
-2359.58
-2201.67
-2049.32
-1894.33
-1734.68
-1572.04
-1406.63
-1238.25
-1066.79
-891.5
-711.188
-520.562
-315.821
-65.615
205.662
1036.55
1187.75
1332.94
1463.93
1566.01
1633.77
1663.46
1652.22
1602.68
1522.63
1421.77
1309.42
1192.38
1075.68
962.862
855.362
753.345
656.286
563.162
472.577
383.626
295.691
209.212
126.447
53.421
-4.8358
-49.9883
-84.2019
-107.723
-120.386
-122.562
-114.787
-97.4789
-70.582
-33.736
15.7199
81.6941
185.024
337.854
851.351
686.018
491.093
270.019
31.6726
-226.805
-498.771
-776.429
-1054.82
-1327.63
-1588.6
-1833
-2056.46
-2255.3
-2426.42
-2567.36
-2676
-2750.61
-2789.45
-2791.31
-2755.96
-2684.35
-2580.4
-2450.47
-2304.64
-2156.6
-2011.03
-1862.19
-1707.99
-1549.99
-1388.65
-1223.82
-1055.38
-882.635
-704.429
-515.592
-312.521
-64.8798
200.793
995.837
1129.2
1258.05
1375
1467.24
1531.48
1563.65
1560.69
1524.8
1461.37
1377.58
1280.84
1176.83
1070.13
964.316
861.341
762.044
666.539
574.341
484.567
396.502
309.752
224.761
143.556
71.0513
11.8239
-34.7131
-70.3488
-95.3364
-109.473
-113.063
-106.594
-90.4686
-64.6302
-28.6905
19.9911
85.2
187.018
333.385
819.962
673.428
500.132
303.754
92.3695
-138.247
-382.122
-633.002
-887.397
-1139.78
-1384.89
-1618.43
-1835.96
-2033.49
-2207.59
-2355.24
-2473.59
-2560.42
-2614.12
-2633.14
-2616.49
-2564.65
-2480.54
-2369.72
-2240.8
-2105.22
-1968.43
-1827.02
-1679.22
-1526.52
-1369.64
-1208.58
-1043.31
-873.228
-697.24
-510.356
-309.215
-64.6996
194.768
948.26
1066.47
1181.77
1287.46
1371.99
1433.32
1467.21
1470.53
1445.3
1395.38
1326.28
1243.92
1152.89
1057.12
959.898
863.29
768.487
676.044
585.927
497.706
410.957
325.522
241.912
162.009
89.9269
29.8049
-18.1239
-55.2068
-81.7013
-97.4025
-102.548
-97.5662
-82.8082
-58.198
-23.3145
24.4558
88.7475
188.758
328.548
779.763
647.755
491.375
314.206
124.082
-84.1839
-305.299
-533.863
-767.635
-1001.79
-1231.93
-1454.3
-1664.56
-1858.73
-2033.18
-2184.45
-2309.29
-2405.13
-2469.49
-2500.68
-2497.25
-2459.69
-2390.52
-2294.71
-2179.69
-2054.97
-1926.16
-1791.63
-1649.94
-1502.43
-1349.99
-1192.73
-1030.71
-863.368
-689.703
-504.917
-305.956
-65.1035
187.681
895.583
1002.14
1106.87
1203.6
1281.98
1340.75
1375.7
1383.83
1366.92
1327.95
1271.2
1201.45
1122.37
1037.19
948.8
859.151
769.588
680.988
593.677
507.616
422.688
338.963
257.03
178.639
107.29
46.7133
-2.27707
-40.5797
-68.4156
-85.5653
-92.175
-88.6037
-75.1502
-51.7263
-17.8832
28.9491
92.2396
190.179
323.382
736.797
616.936
474.819
314.025
142.127
-46.5707
-247.241
-455.171
-668.989
-884.642
-1098.38
-1307.16
-1507.08
-1694.37
-1865.42
-2016.68
-2144.67
-2246.41
-2319.22
-2361.29
-2370.92
-2348.06
-2294.53
-2214.4
-2113.91
-2000.94
-1881.03
-1753.99
-1618.89
-1476.95
-1329.25
-1176.05
-1017.46
-853.034
-681.842
-499.31
-302.745
-66.0271
179.685
842.233
939.162
1035.15
1124.45
1197.74
1254.17
1289.64
1301.44
1291.04
1260.85
1214.37
1155.51
1087.2
1012.05
932.501
850.26
766.673
682.757
599.076
515.886
433.34
351.713
271.684
194.905
124.446
63.6767
13.8147
-25.6027
-54.7156
-73.2784
-81.3515
-79.2213
-67.124
-44.9511
-12.2274
33.5666
95.7137
191.296
317.934
692.847
583.086
452.913
305.84
149.244
-22.7916
-205.893
-395.809
-591.862
-790.55
-988.782
-1184.14
-1373.17
-1552.45
-1718.59
-1868.03
-1997.19
-2102.94
-2182.31
-2233.16
-2253.44
-2242.71
-2202.34
-2135.78
-2048.25
-1946.27
-1835.01
-1715.34
-1586.78
-1450.49
-1307.62
-1158.6
-1003.6
-842.239
-673.673
-493.573
-299.597
-67.4146
170.943
789.633
878.594
967.282
1050.33
1119.27
1173.5
1209.13
1223.7
1218.38
1195.28
1157.29
1107.71
1048.89
982.943
911.865
837.07
759.791
681.061
601.561
521.767
442.053
362.876
284.997
210.005
140.65
79.9976
29.5305
-10.8158
-41.0673
-60.9444
-70.4174
-69.6942
-58.94
-38.0253
-6.45127
38.2371
99.1197
192.089
312.208
649.435
548.286
428.346
293.074
149.623
-7.97776
-175.656
-349.557
-529.485
-712.388
-895.75
-1077.67
-1255.15
-1425.25
-1584.82
-1730.43
-1858.63
-1966.18
-2049.94
-2107.6
-2137.07
-2137.33
-2109.27
-2055.61
-1980.61
-1889.57
-1787.21
-1675.12
-1553.29
-1422.84
-1285
-1140.34
-989.087
-830.951
-665.183
-487.714
-296.537
-69.2596
161.581
738.86
821.046
903.503
981.184
1046.31
1098.47
1134.01
1150.61
1149.29
1131.89
1100.92
1059.18
1008.64
950.977
887.824
820.298
749.452
676.24
601.378
525.459
449.016
372.645
297.185
224.172
156.129
95.8774
45.0612
3.96206
-27.3024
-48.4073
-59.2319
-59.9027
-50.5047
-30.8819
-0.513197
42.98
102.462
192.565
306.217
607.304
513.579
402.481
277.41
145.337
0.288866
-153.898
-313.695
-479.18
-647.714
-817.254
-986.359
-1152.43
-1312.96
-1465.15
-1605.83
-1731.68
-1839.5
-1926.09
-1988.96
-2025.92
-2035.51
-2018.16
-1975.98
-1912.43
-1831.77
-1738.18
-1633.64
-1518.59
-1394.09
-1261.42
-1121.25
-973.911
-819.169
-656.374
-481.738
-293.592
-71.563
151.656
690.376
766.737
843.786
916.79
978.522
1028.71
1063.95
1082.05
1083.86
1071.07
1045.88
1010.77
967.376
917.079
861.2
800.592
736.094
668.531
598.587
526.894
454.077
380.83
308.038
237.198
170.679
111.102
60.2014
18.5477
-13.5832
-35.8072
-47.9124
-49.9399
-41.8886
-23.5718
5.55066
47.7684
105.717
192.726
299.986
566.898
479.664
376.312
260.176
138.038
4.00853
-138.27
-285.525
-438.059
-593.53
-750.268
-907.211
-1062.15
-1212.99
-1357.26
-1492.09
-1614.39
-1721.09
-1809
-1875.51
-1918.44
-1935.98
-1928.11
-1896.37
-1843.47
-1772.76
-1687.83
-1590.88
-1482.66
-1364.22
-1236.86
-1101.34
-958.069
-806.887
-647.244
-475.656
-290.785
-74.3275
141.213
644.431
715.708
787.998
856.859
915.536
963.846
998.63
1017.79
1022.05
1013
992.599
963.055
925.807
881.996
832.705
778.552
720.177
658.253
593.374
526.155
457.255
387.414
317.53
249.071
184.288
125.65
74.9282
32.927
0.0861518
-23.1403
-36.4483
-39.7915
-33.0793
-16.0871
11.7418
52.5961
108.877
192.579
293.537
528.454
446.943
350.436
242.194
128.813
4.52458
-127.2
-263.282
-404.197
-547.859
-692.849
-838.436
-982.741
-1124.02
-1260.18
-1388.65
-1506.6
-1611.13
-1699.16
-1768.03
-1815.55
-1839.69
-1839.97
-1817.47
-1774.25
-1712.91
-1636.4
-1546.97
-1445.57
-1333.27
-1211.33
-1080.6
-941.553
-794.1
-637.797
-469.475
-288.127
-77.5409
130.284
601.076
667.885
735.919
801.081
856.963
903.478
937.702
957.576
963.757
957.745
941.302
916.447
884.47
846.338
802.939
754.722
702.145
645.727
585.947
523.345
458.565
392.348
325.588
259.71
196.873
139.422
89.1386
47.0053
13.6208
-10.479
-24.8998
-29.5049
-24.1135
-8.45581
18.0378
57.4453
111.926
192.132
286.895
492.068
415.651
325.252
224.044
118.448
2.83157
-119.489
-245.577
-376.054
-509.016
-643.258
-778.295
-912.546
-1044.58
-1172.63
-1294.45
-1407.46
-1508.98
-1596.1
-1666.18
-1717
-1746.51
-1753.75
-1739.39
-1704.96
-1652.37
-1584.02
-1501.98
-1407.38
-1301.26
-1184.84
-1059.04
-924.359
-780.806
-628.032
-463.2
-285.631
-81.1851
118.906
560.301
623.115
687.345
749.152
802.461
847.247
880.826
901.155
908.831
905.29
892.136
871.234
843.764
810.575
772.416
729.599
682.435
631.299
576.541
518.601
458.067
395.643
332.192
269.081
208.388
152.361
102.768
60.7221
26.9702
2.13571
-13.2984
-19.1018
-15.0074
-0.691237
24.4264
62.3024
114.854
191.4
280.085
457.752
385.913
301.002
206.116
107.486
-0.368785
-114.247
-231.375
-352.434
-475.682
-600.102
-725.396
-850.231
-973.447
-1093.56
-1208.61
-1316.32
-1414.23
-1499.63
-1569.98
-1623
-1656.72
-1669.79
-1662.5
-1635.93
-1591.44
-1530.86
-1456.05
-1368.18
-1268.24
-1157.43
-1036.65
-906.491
-767.005
-617.953
-456.834
-283.296
-85.2402
107.13
522.036
581.249
642.027
700.778
751.695
794.824
827.694
848.27
857.105
855.568
845.153
827.584
803.975
775.084
741.559
703.617
661.449
615.299
565.399
512.081
455.844
397.329
337.334
277.151
218.783
164.402
115.739
74.002
40.0654
14.6435
-1.69442
-8.62255
-5.79253
7.18166
30.8869
67.1504
117.648
190.394
273.138
425.47
357.782
277.839
188.671
96.3121
-4.54073
-110.807
-219.853
-332.397
-446.826
-562.283
-678.607
-794.661
-909.521
-1021.96
-1130.29
-1232.49
-1326.37
-1409.42
-1479.21
-1533.49
-1570.38
-1588.22
-1586.99
-1567.4
-1530.34
-1477.11
-1409.3
-1328.04
-1234.28
-1129.11
-1013.47
-887.957
-752.7
-607.561
-450.382
-281.126
-89.6707
95.0061
486.177
542.124
599.75
655.685
704.371
745.912
778.025
798.685
808.405
808.504
800.372
785.623
765.318
740.155
710.712
677.135
639.534
598.04
552.777
503.969
452.013
397.458
341.021
283.904
228.031
175.495
127.989
86.7782
52.8438
26.9887
9.86591
1.89569
3.5022
15.1393
37.3992
71.9732
120.3
189.135
266.084
395.167
331.258
255.838
171.881
85.2003
-9.30179
-108.68
-210.401
-315.219
-421.64
-528.907
-636.965
-744.867
-851.868
-956.969
-1058.72
-1155.36
-1244.93
-1325.14
-1393.72
-1448.45
-1487.58
-1509.24
-1513.13
-1499.65
-1469.3
-1422.97
-1361.89
-1287.08
-1199.43
-1099.94
-989.511
-868.768
-737.899
-596.864
-443.848
-279.115
-94.4399
82.5875
452.604
505.573
560.299
613.621
660.223
700.235
731.555
752.175
762.556
763.987
757.761
745.401
727.932
706.006
680.15
650.469
617.009
579.821
538.932
494.466
446.711
396.114
343.293
289.344
236.106
185.596
139.458
98.9837
65.2401
39.1114
21.3303
12.409
12.8416
23.1532
43.9401
76.753
122.801
187.642
258.951
366.764
306.316
235.051
155.849
74.3535
-14.3743
-107.475
-202.543
-300.328
-399.441
-499.213
-599.685
-700.037
-799.694
-897.831
-993.216
-1084.33
-1169.43
-1246.44
-1313.28
-1367.8
-1408.33
-1432.95
-1441.08
-1432.89
-1408.58
-1368.63
-1313.95
-1245.41
-1163.78
-1069.96
-964.807
-848.944
-722.612
-585.867
-437.231
-277.257
-99.5046
69.9412
421.194
471.425
523.473
574.362
619.002
657.548
688.047
708.522
719.395
721.907
717.279
706.951
691.918
672.801
650.091
623.872
594.146
560.906
524.102
483.766
440.083
393.394
344.203
293.492
243.002
194.676
150.094
110.557
77.191
50.9515
32.645
22.8715
22.1885
31.1931
50.4848
81.4725
125.143
185.938
251.778
340.169
282.912
215.469
140.65
63.8937
-19.5405
-106.909
-195.894
-287.265
-379.701
-472.612
-566.105
-659.478
-752.276
-843.841
-933.122
-1018.82
-1099.38
-1172.97
-1237.66
-1291.42
-1332.64
-1359.45
-1371.03
-1367.35
-1348.4
-1314.31
-1265.67
-1203.16
-1127.42
-1039.24
-939.398
-828.508
-706.853
-574.577
-430.534
-275.54
-104.818
57.1308
391.822
439.523
489.087
537.7
580.479
617.621
647.284
667.535
678.755
682.144
678.857
670.263
657.327
640.652
620.703
597.555
571.182
541.537
508.515
472.069
432.288
389.406
343.816
296.378
248.727
202.714
159.857
121.444
88.6358
62.4487
43.7545
33.2342
31.5018
39.2253
57.0068
86.113
127.322
184.045
244.598
315.294
260.992
197.084
126.308
53.9191
-24.6562
-106.757
-190.177
-275.672
-361.991
-448.6
-535.672
-622.585
-708.999
-794.389
-877.863
-958.303
-1034.36
-1104.38
-1166.61
-1219.17
-1260.48
-1288.8
-1303.1
-1303.21
-1288.96
-1260.2
-1217.21
-1160.46
-1090.46
-1007.85
-913.334
-807.492
-690.641
-563.005
-423.753
-273.95
-110.33
44.2233
364.366
409.72
456.969
503.442
544.459
580.246
609.069
629.034
640.486
644.587
642.432
635.319
624.193
609.645
592.119
571.688
548.316
521.929
492.381
459.563
423.484
384.277
342.222
298.059
253.298
209.701
168.715
131.594
99.517
73.5441
54.6021
43.4458
40.7384
47.2141
63.4774
90.6568
129.334
181.99
237.444
292.043
240.49
179.868
112.843
44.4837
-29.6051
-106.858
-185.16
-265.255
-345.955
-426.784
-507.939
-588.89
-669.37
-748.969
-826.943
-902.325
-973.943
-1040.32
-1099.88
-1150.88
-1191.8
-1221.04
-1237.41
-1240.64
-1230.46
-1206.5
-1168.75
-1117.47
-1053
-975.876
-886.672
-785.933
-673.997
-551.16
-416.886
-272.462
-115.984
31.2921
338.716
381.876
426.958
471.414
510.757
545.245
573.227
592.862
604.451
609.123
607.92
602.081
592.525
579.83
564.43
546.402
525.711
502.264
475.89
446.433
413.832
378.137
339.521
298.594
256.746
215.639
176.643
140.965
109.782
84.1802
65.1311
53.4536
49.8525
55.1213
69.8672
95.0851
131.177
179.798
230.352
270.329
221.339
163.778
100.247
35.6262
-34.3107
-107.081
-180.665
-255.778
-331.308
-406.812
-482.519
-557.956
-632.928
-707.123
-779.898
-850.445
-917.737
-980.47
-1037.22
-1086.39
-1126.52
-1156.16
-1174.03
-1179.79
-1173.09
-1153.39
-1120.46
-1074.32
-1015.18
-943.406
-859.477
-763.875
-656.949
-539.054
-409.929
-271.053
-121.721
18.4131
314.756
355.864
398.908
441.458
479.208
512.448
539.596
558.86
570.512
575.644
575.248
570.503
562.309
551.235
537.706
521.807
503.503
482.699
459.208
432.844
403.49
371.12
335.812
298.054
259.114
220.546
183.632
149.526
119.384
94.3028
75.2856
63.2038
58.7964
62.907
76.145
99.3801
132.851
177.494
223.357
250.063
203.47
148.774
88.5067
27.3562
-38.7174
-107.334
-176.55
-247.068
-317.82
-388.413
-459.086
-529.423
-599.285
-668.435
-736.327
-802.272
-865.386
-924.513
-978.377
-1025.52
-1064.54
-1094.15
-1113.03
-1120.78
-1117
-1101.05
-1072.5
-1031.17
-977.107
-910.542
-831.825
-741.37
-639.527
-526.7
-402.874
-269.694
-127.484
5.65678
292.38
331.567
372.691
413.432
449.667
481.703
508.027
526.892
538.543
544.043
544.331
540.532
533.528
523.878
511.994
497.975
481.798
463.364
442.482
418.947
392.603
363.358
331.206
296.527
260.458
224.444
189.681
157.252
128.282
103.862
85.011
72.6423
67.5217
70.5299
82.2793
103.523
134.356
175.104
216.491
231.161
186.817
134.808
77.598
19.6871
-42.7899
-107.543
-172.71
-238.968
-305.309
-371.361
-437.382
-502.995
-568.111
-632.554
-695.865
-757.457
-816.553
-872.147
-923.093
-968.066
-1005.74
-1034.97
-1054.43
-1063.68
-1062.32
-1049.65
-1025.05
-988.181
-938.93
-877.392
-803.792
-718.476
-621.769
-514.113
-395.716
-268.351
-133.209
-6.89965
271.492
308.869
348.181
387.209
421.998
452.87
478.381
496.827
508.434
514.224
515.093
512.113
506.149
497.747
487.316
474.965
460.679
444.367
425.84
404.882
381.309
354.98
325.818
294.1
260.841
227.371
194.797
164.13
136.443
112.811
94.2561
81.7161
75.9782
77.9473
88.2375
107.497
135.695
172.653
209.787
213.538
171.313
121.833
67.4908
12.6131
-46.5052
-107.656
-169.055
-231.361
-293.61
-355.458
-417.168
-478.409
-539.124
-599.181
-658.198
-715.676
-770.939
-823.104
-871.14
-913.858
-950.013
-978.557
-998.237
-1008.58
-1009.19
-999.321
-978.257
-945.497
-900.78
-844.065
-775.474
-695.254
-603.708
-501.31
-388.441
-266.989
-138.833
-19.1829
251.999
287.671
325.264
362.662
396.068
425.818
450.533
468.551
480.073
486.088
487.451
485.186
480.136
472.836
463.689
452.815
440.211
425.795
409.385
390.766
369.732
346.106
319.754
290.865
260.33
229.372
199
170.153
143.843
121.112
102.973
90.3738
84.1177
85.1161
93.9877
111.284
136.869
170.163
203.273
197.12
156.895
109.797
58.1531
6.12003
-49.8532
-107.637
-165.525
-224.153
-282.6
-340.55
-398.263
-455.444
-512.071
-568.044
-623.043
-676.645
-728.265
-777.119
-822.293
-862.707
-897.22
-924.849
-944.451
-955.519
-957.69
-950.209
-932.272
-903.262
-862.788
-810.687
-746.958
-671.772
-585.396
-488.304
-381.046
-265.565
-144.291
-31.1204
233.815
267.872
303.836
339.679
371.764
400.433
424.367
441.951
453.358
459.547
461.331
459.69
455.445
449.119
441.109
431.546
420.437
407.715
393.207
376.702
357.984
336.849
313.122
286.91
258.999
230.496
202.318
175.324
150.463
128.731
111.117
98.5671
91.8927
91.995
99.497
114.867
137.881
167.657
196.975
181.836
143.499
98.6531
49.5516
0.192973
-52.8283
-107.461
-162.068
-217.266
-272.173
-326.501
-380.504
-433.92
-486.745
-538.916
-590.158
-640.115
-688.279
-733.957
-776.339
-814.441
-847.225
-873.765
-893.036
-904.525
-907.901
-902.424
-887.233
-861.62
-825.089
-777.367
-718.347
-648.103
-566.869
-475.122
-373.517
-264.044
-149.528
-42.6427
216.856
249.385
283.798
318.161
348.981
376.61
399.78
416.924
428.193
434.512
436.657
435.563
432.028
426.566
419.568
411.169
401.393
390.182
377.379
362.777
346.163
327.315
306.023
282.334
256.926
230.801
204.784
179.657
156.296
135.642
118.65
106.252
99.256
98.5427
104.735
118.229
138.736
165.151
190.914
167.615
131.067
88.3488
41.6526
-5.18981
-55.4347
-107.109
-158.649
-210.641
-262.25
-313.206
-363.763
-413.675
-462.967
-511.593
-559.324
-605.86
-650.756
-693.401
-733.074
-768.889
-799.89
-825.221
-843.962
-855.614
-859.884
-856.058
-843.259
-820.704
-787.819
-744.229
-689.732
-624.325
-548.183
-461.776
-365.847
-262.388
-154.48
-53.6871
201.046
232.125
265.065
298.013
327.622
354.247
376.672
393.375
404.487
410.901
413.357
412.744
409.841
405.147
399.048
391.686
383.096
373.233
361.955
349.065
334.354
317.596
298.554
277.223
254.188
230.347
206.441
183.17
161.339
141.826
125.541
113.386
106.164
104.72
109.671
121.356
139.434
162.664
185.109
154.391
119.54
78.8394
34.419
-10.0501
-57.6817
-106.574
-155.236
-204.23
-252.759
-300.569
-347.916
-394.572
-440.572
-485.898
-530.353
-573.68
-615.494
-655.254
-692.315
-725.882
-755.084
-779.117
-797.181
-808.783
-813.676
-811.197
-800.455
-780.637
-751.102
-711.391
-661.223
-600.511
-529.39
-448.294
-358.026
-260.546
-159.095
-64.1908
186.314
216.014
247.55
279.145
307.594
333.251
354.952
371.215
382.156
388.636
391.358
391.17
388.829
384.823
379.524
373.087
365.554
356.893
346.978
335.626
322.634
307.775
290.8
271.662
250.86
229.197
207.334
185.892
165.601
147.272
131.764
119.938
112.578
110.49
114.278
124.231
139.981
160.207
179.573
142.105
108.864
70.0789
27.8139
-14.4122
-59.5762
-105.85
-151.809
-197.993
-243.64
-288.515
-332.868
-376.491
-419.428
-461.676
-503.071
-543.394
-582.305
-619.331
-653.89
-685.271
-712.677
-735.365
-752.629
-764.01
-769.304
-767.897
-758.915
-741.528
-715.051
-678.964
-632.915
-576.747
-510.538
-434.699
-350.044
-258.492
-163.316
-74.096
172.592
200.979
231.175
261.479
288.813
313.538
334.534
350.361
361.121
367.642
370.593
370.784
368.942
365.552
360.969
355.358
348.768
341.179
332.48
322.506
311.062
297.924
282.841
265.73
247.017
227.417
207.514
187.855
169.095
151.977
137.3
125.877
118.463
115.818
118.528
126.842
140.377
157.792
174.314
130.697
98.9879
62.0221
21.8029
-18.3017
-61.1353
-104.941
-148.358
-191.903
-234.852
-276.983
-318.541
-359.336
-399.416
-438.796
-477.334
-514.845
-551.029
-585.465
-617.639
-646.907
-672.542
-693.859
-710.244
-721.268
-726.773
-726.203
-718.714
-703.475
-679.777
-647.058
-604.906
-553.108
-491.689
-421.014
-341.899
-256.185
-167.099
-83.3561
159.817
186.954
215.869
244.937
271.202
295.027
315.338
330.737
341.308
347.85
350.998
351.523
350.132
347.291
343.351
338.476
332.729
326.097
318.484
309.742
299.688
288.107
274.745
259.5
242.73
225.071
207.032
189.096
171.843
155.945
142.138
131.181
123.791
120.675
122.399
129.176
140.623
155.424
169.336
120.113
89.8617
54.6269
16.3505
-21.7451
-62.374
-103.85
-144.874
-185.94
-226.358
-265.922
-304.867
-343.021
-380.436
-417.141
-453.013
-487.892
-521.516
-553.511
-583.418
-610.652
-634.561
-654.505
-669.954
-680.519
-686.083
-686.149
-679.913
-666.56
-645.377
-615.773
-577.294
-529.674
-472.894
-407.268
-333.589
-253.594
-170.401
-91.9306
147.93
173.875
201.565
229.447
254.687
277.644
297.29
312.268
322.644
329.191
332.508
333.333
332.345
329.998
326.634
322.421
317.425
311.646
305.003
297.361
288.553
278.373
266.576
253.04
238.068
222.22
205.944
189.656
173.87
159.187
146.275
135.834
128.537
125.038
125.869
131.222
140.72
153.108
164.637
110.301
81.4383
47.8523
11.4227
-24.7675
-63.3084
-102.582
-141.349
-180.083
-218.124
-255.283
-291.785
-327.473
-362.404
-396.611
-429.992
-462.409
-493.634
-523.331
-551.089
-576.382
-598.617
-617.204
-631.689
-641.719
-647.22
-647.751
-642.557
-630.856
-611.938
-585.201
-550.164
-506.522
-454.208
-393.489
-325.11
-250.694
-173.185
-99.7806
136.875
161.681
188.199
214.946
239.201
261.321
280.322
294.885
305.065
311.601
315.065
316.155
315.53
313.629
310.782
307.161
302.837
297.819
292.04
285.381
277.688
268.769
258.386
246.408
233.09
218.925
204.303
189.582
175.21
161.72
149.713
139.828
132.686
128.885
128.922
132.968
140.666
150.843
160.211
101.213
73.6737
41.6589
6.98677
-27.3943
-63.9576
-101.147
-137.785
-174.32
-210.128
-245.031
-279.246
-312.627
-345.238
-377.116
-408.172
-438.289
-467.268
-494.804
-520.532
-543.976
-564.599
-581.862
-595.369
-604.816
-610.161
-611.015
-606.683
-596.417
-579.533
-555.425
-523.601
-483.722
-435.686
-379.706
-316.469
-247.461
-175.421
-106.88
126.599
150.318
175.714
201.372
224.679
245.993
264.368
278.525
288.505
295.019
298.608
299.937
299.637
298.138
295.757
292.667
288.944
284.605
279.597
273.813
267.115
259.325
250.217
239.655
227.854
215.243
202.162
188.917
175.896
163.567
152.464
143.162
136.228
132.203
131.545
134.406
140.458
148.626
156.047
92.8013
66.5255
36.0094
3.01054
-29.6523
-64.3389
-99.5562
-134.181
-168.646
-202.353
-235.137
-267.21
-298.435
-328.877
-358.578
-387.464
-415.432
-442.307
-467.817
-491.633
-513.325
-532.407
-548.39
-560.923
-569.754
-574.87
-575.935
-572.309
-563.29
-548.222
-526.517
-497.676
-461.343
-417.381
-365.951
-307.67
-243.883
-177.091
-113.208
117.052
139.732
164.053
188.666
211.063
231.598
249.366
263.126
272.906
279.386
283.084
284.624
284.619
283.483
281.522
278.907
275.722
271.989
267.666
262.661
256.851
250.072
242.11
232.83
222.41
211.228
199.574
187.71
175.969
164.756
154.543
145.84
139.159
134.982
133.728
135.531
140.095
146.453
152.131
85.0233
59.9541
30.8679
-0.53649
-31.5657
-64.4706
-97.8183
-130.541
-163.053
-194.781
-225.577
-255.64
-284.846
-313.262
-340.931
-367.791
-393.751
-418.659
-442.27
-464.289
-484.327
-501.942
-516.695
-528.273
-536.474
-541.311
-542.495
-539.442
-531.502
-518.055
-498.539
-472.458
-439.447
-399.341
-352.255
-298.725
-239.952
-178.178
-118.755
108.189
129.874
153.165
176.775
198.297
218.081
235.26
248.631
258.21
264.649
268.438
270.167
270.428
269.618
268.035
265.848
263.144
259.951
256.238
251.926
246.905
241.027
234.094
225.971
216.805
206.928
196.589
186.008
175.468
165.32
155.973
147.876
141.484
137.222
135.466
136.338
139.571
144.314
148.446
77.8379
53.9218
26.2004
-3.68422
-33.1592
-64.3723
-95.9481
-126.872
-157.538
-187.404
-216.328
-244.506
-271.821
-298.341
-324.112
-349.081
-373.168
-396.238
-418.073
-438.407
-456.887
-473.112
-486.692
-497.344
-504.917
-509.439
-510.669
-508.079
-501.072
-489.07
-471.539
-448
-418.088
-381.615
-338.65
-289.649
-235.664
-178.677
-123.517
99.9665
120.7
143.002
165.648
186.328
205.387
221.995
234.986
244.363
250.753
254.618
256.517
257.017
256.503
255.259
253.456
251.181
248.47
245.299
241.603
237.284
232.208
226.193
219.11
211.079
202.389
193.253
183.856
174.438
165.295
156.782
149.287
143.211
138.924
136.758
136.823
138.884
142.199
144.97
71.2063
48.3928
21.9747
-6.45986
-34.4562
-64.0612
-93.9568
-123.178
-152.1
-180.209
-207.375
-233.784
-259.327
-284.074
-308.072
-331.274
-353.613
-374.968
-395.144
-413.899
-430.919
-445.835
-458.301
-468.065
-475.015
-479.205
-480.426
-478.208
-472.006
-461.29
-445.556
-424.352
-397.315
-364.244
-325.167
-280.46
-231.025
-178.589
-127.497
92.3413
112.164
133.517
155.237
175.107
193.466
209.519
222.14
231.316
237.65
241.577
243.626
244.342
244.094
243.156
241.697
239.806
237.524
234.834
231.683
227.987
223.623
218.428
212.276
205.267
197.651
189.612
181.301
172.92
164.72
157.001
150.099
144.358
140.099
137.609
136.987
138.029
140.096
141.68
65.0922
43.3322
18.1603
-8.89071
-35.4799
-63.5548
-91.8561
-119.464
-146.74
-173.193
-198.703
-223.45
-247.333
-270.422
-292.763
-314.316
-335.025
-354.781
-373.408
-390.689
-406.339
-420.027
-431.441
-440.36
-446.709
-450.556
-451.728
-449.808
-444.302
-434.727
-420.617
-401.549
-377.169
-347.269
-311.839
-271.179
-226.047
-177.925
-130.707
85.2759
104.226
124.668
145.498
164.587
182.27
197.787
210.043
219.021
225.292
229.269
231.45
232.359
232.35
231.688
230.537
228.989
227.088
224.826
222.157
219.011
215.279
210.812
205.492
199.401
192.753
185.706
178.386
170.958
163.634
156.667
150.339
144.946
140.759
138.027
136.831
137.001
137.992
138.553
59.461
38.7092
14.7277
-11.0026
-36.2511
-62.8716
-89.6585
-115.739
-141.457
-166.349
-190.3
-213.487
-235.814
-257.35
-278.143
-298.158
-317.347
-335.612
-352.796
-368.703
-383.074
-395.613
-406.04
-414.161
-419.933
-423.437
-424.533
-422.85
-417.947
-409.386
-396.741
-379.618
-357.683
-330.723
-298.696
-261.83
-220.749
-176.699
-133.164
78.7335
96.8474
116.414
136.389
154.726
171.757
186.752
198.653
207.431
213.632
217.648
219.946
221.027
221.234
220.818
219.943
218.701
217.137
215.253
213.012
210.352
207.178
203.357
198.778
193.506
187.727
181.575
175.153
168.597
162.081
155.816
150.04
145
140.924
138.022
136.362
135.798
135.874
135.564
54.2801
34.4928
11.6498
-12.82
-36.7917
-62.0283
-87.3769
-112.011
-136.255
-159.673
-182.159
-203.879
-224.746
-244.83
-264.176
-282.756
-300.529
-317.406
-333.247
-347.874
-361.055
-372.522
-382.026
-389.398
-394.623
-397.792
-398.794
-397.3
-392.92
-385.259
-373.932
-358.578
-338.884
-314.636
-285.767
-252.439
-215.152
-174.935
-134.892
72.6801
89.9916
108.719
127.87
145.483
161.882
176.371
187.924
196.504
202.631
206.674
209.073
210.307
210.706
210.511
209.882
208.912
207.648
206.098
204.233
202.001
199.32
196.069
192.148
187.606
182.604
177.255
171.642
165.876
160.101
154.49
149.238
144.552
140.618
137.61
135.585
134.419
133.729
132.688
49.5186
30.6547
8.90022
-14.3659
-37.1206
-61.0408
-85.0233
-108.286
-131.138
-153.164
-174.269
-194.61
-214.11
-232.833
-250.829
-268.071
-284.523
-300.109
-314.702
-328.14
-340.215
-350.684
-359.33
-366.005
-370.716
-373.563
-374.459
-373.117
-369.191
-362.33
-352.189
-338.438
-320.79
-299.032
-273.079
-243.035
-209.284
-172.661
-135.923
67.0825
83.6248
101.545
119.904
136.819
152.607
166.605
177.817
186.199
192.246
196.306
198.791
200.162
200.732
200.734
200.323
199.594
198.596
197.339
195.805
193.949
191.701
188.954
185.614
181.72
177.409
172.777
167.89
162.839
157.739
152.73
147.973
143.634
139.868
136.811
134.511
132.86
131.542
129.9
45.1479
27.1675
6.45478
-15.6626
-37.2566
-59.9244
-82.6101
-104.573
-126.107
-146.82
-166.623
-185.67
-203.887
-221.338
-238.072
-254.066
-269.291
-283.676
-297.109
-309.444
-320.493
-330.039
-337.888
-343.916
-348.148
-350.689
-351.477
-350.257
-346.727
-340.577
-331.501
-319.202
-303.412
-283.933
-260.659
-233.646
-203.177
-169.912
-136.289
61.9103
77.7149
94.8601
112.456
128.698
143.896
157.415
168.294
176.478
182.44
186.507
189.065
190.554
191.276
191.453
191.237
190.721
189.956
188.958
187.713
186.188
184.319
182.013
179.186
175.865
172.168
168.172
163.934
159.524
155.034
150.578
146.283
142.283
138.702
135.647
133.151
131.125
129.304
127.177
41.1406
24.0063
4.28964
-16.7301
-37.2187
-58.6941
-80.1473
-100.877
-121.165
-140.639
-159.217
-177.047
-194.061
-210.322
-225.877
-240.708
-254.79
-268.061
-280.419
-291.732
-301.831
-310.524
-317.637
-323.069
-326.857
-329.113
-329.791
-328.672
-325.49
-319.974
-311.852
-300.862
-286.758
-269.353
-248.53
-224.302
-196.865
-166.724
-136.033
57.1347
72.2313
88.6316
105.493
121.085
135.712
148.766
159.318
167.304
173.177
177.24
179.858
181.451
182.307
182.638
182.593
182.265
181.704
180.933
179.942
178.704
177.167
175.249
172.872
170.056
166.899
163.468
159.805
155.968
152.028
148.075
144.209
140.537
137.153
134.14
131.52
129.215
127.003
124.498
37.471
21.1469
2.38297
-17.5884
-37.0235
-57.3632
-77.6461
-97.208
-116.316
-134.62
-152.045
-168.731
-184.618
-199.765
-214.221
-227.968
-240.988
-253.225
-264.586
-274.954
-284.177
-292.082
-298.519
-303.402
-306.782
-308.774
-309.346
-308.312
-305.437
-300.484
-293.219
-283.406
-270.827
-255.302
-236.711
-215.031
-190.384
-163.14
-135.195
52.7286
67.1455
82.8297
98.9835
113.949
128.023
140.625
150.855
158.644
164.422
168.473
171.139