/*--------------------------------*- C++ -*----------------------------------*\
| =========                 |                                                 |
| \\      /  F ield         | OpenFOAM: The Open Source CFD Toolbox           |
|  \\    /   O peration     | Version:  v1806                                 |
|   \\  /    A nd           | Web:      www.OpenFOAM.com                      |
|    \\/     M anipulation  |                                                 |
\*---------------------------------------------------------------------------*/
FoamFile
{
    version     2.0;
    format      ascii;
    class       volScalarField;
    location    "301";
    object      p;
}
// * * * * * * * * * * * * * * * * * * * * * * * * * * * * * * * * * * * * * //

dimensions      [0 2 -2 0 0 0 0];


internalField   nonuniform List<scalar> 
10720
(
21.0253
-358.914
-810.846
-1264.13
-1693.05
-2135.89
-2536.82
-2882.97
-3191.43
-3442.28
-3644.11
-3803.01
-3921.17
-4002.54
-4050.98
-4064.88
-4049.65
-3997.12
-3913.07
-3789.65
-3632.28
-3436.3
-3213.86
-2969.86
-2724.03
-2505.35
-2308.6
-2113.79
-1919.39
-1726.7
-1534.83
-1343.15
-1151.14
-957.673
-761.29
-556.108
-338.345
-75.0643
210.574
394.787
730.948
1079.77
1396.9
1656.59
1835.09
1916.06
1925.63
1875.98
1763.84
1621.47
1474.85
1332.32
1198.14
1075.95
963.084
858.973
760.581
666.217
572.732
479.874
385.727
290.954
198.065
118.509
58.4818
11.4096
-25.1892
-51.3543
-66.8732
-72.2987
-68.208
-55.0659
-32.8484
-1.37896
41.8399
100.651
196.303
355.698
493.334
207.014
-117.745
-467.63
-831.651
-1208.49
-1579.19
-1932.02
-2262.71
-2561.14
-2824.66
-3051.88
-3242.21
-3396.41
-3514.24
-3593.9
-3635.71
-3637.39
-3601.83
-3525.53
-3411.33
-3257.58
-3073.27
-2864.5
-2648.44
-2449.25
-2264.66
-2079.26
-1892.12
-1705.1
-1517.82
-1329.86
-1140.88
-949.837
-755.343
-551.612
-334.98
-72.3594
208.597
748.279
988.77
1224.84
1447.13
1635.55
1774.9
1850.97
1866.56
1825.46
1736.49
1620.33
1493.43
1363.99
1237.17
1116.89
1003.42
896.679
795.178
697.581
601.764
507.122
412.378
318.087
226.773
147.297
84.9411
35.1546
-4.17846
-33.0286
-51.1248
-58.883
-56.9005
-45.6454
-25.0909
4.99527
47.1277
105.081
200.178
353.496
549.284
293.366
1.69968
-323.28
-664.315
-1018.27
-1376.28
-1724.03
-2052.71
-2356.14
-2627.03
-2862.78
-3062.08
-3223.99
-3347.49
-3433.47
-3482.41
-3493.84
-3468.39
-3404.42
-3303.23
-3164.9
-2996.12
-2803.87
-2602.41
-2411.48
-2232.01
-2052.15
-1870.07
-1687.34
-1503.72
-1318.8
-1132.27
-943.188
-750.219
-547.689
-332.046
-70.661
206.32
777.406
995.554
1208.72
1406.23
1570.64
1692.64
1764.21
1785.62
1758.51
1689.76
1592.56
1479.58
1359.71
1239
1121.81
1009.91
903.697
802.465
705.113
610.001
516.251
422.963
330.53
241.229
162.05
98.1898
47.0289
6.52741
-23.4171
-42.5726
-51.3504
-50.3357
-39.9746
-20.229
9.18206
50.7771
108.308
202.63
349.865
629.888
414.82
166.655
-109.196
-401.752
-711.156
-1028.57
-1344.27
-1651.1
-1942.48
-2211.92
-2455.3
-2669.5
-2852.26
-3001.45
-3116.32
-3196.58
-3239.96
-3245.54
-3212.02
-3139.82
-3029.73
-2887.04
-2718.93
-2537.65
-2360.08
-2189.76
-2018.04
-1842.76
-1665.54
-1486.51
-1305.37
-1121.93
-935.336
-744.326
-543.379
-329.098
-69.6841
203.06
820.626
1001.53
1180.14
1348.65
1491.04
1599.99
1668.67
1695.04
1679.49
1627.46
1548.39
1452.11
1346.24
1236.46
1126.98
1020.12
916.847
817.206
720.598
625.968
532.61
440.007
348.579
260.445
181.321
116.102
63.4266
21.3958
-10.1444
-30.9495
-41.3522
-41.8669
-32.8804
-14.3335
14.091
54.8958
111.749
204.842
345.984
640.978
450.169
228.947
-18.3311
-281.15
-562.107
-853.849
-1147.76
-1438.43
-1719.37
-1984.18
-2228.22
-2447.4
-2638.35
-2798.33
-2925.52
-3018.22
-3074.49
-3093.26
-3073.9
-3016.68
-2922.89
-2796.93
-2645.59
-2479.44
-2312.51
-2149.53
-1984.43
-1814.98
-1642.71
-1468.01
-1290.61
-1110.35
-926.428
-737.617
-538.538
-325.985
-69.1323
198.539
810.572
970.587
1129.22
1279.22
1406.5
1506
1572.35
1602.52
1596.36
1558.27
1494.99
1414.03
1321.57
1222.68
1121.38
1020.28
920.832
823.681
728.743
635.469
543.379
452.207
362.417
275.948
197.498
131.535
77.6908
34.4221
1.5798
-20.5744
-32.2823
-34.0182
-26.1368
-8.58019
18.9972
59.081
115.228
206.906
341.869
639.222
470.143
273.265
53.3358
-180.299
-431.793
-694.411
-961.268
-1228.47
-1490.2
-1741.05
-1976.67
-2192.73
-2385.44
-2551.61
-2688.64
-2794
-2866.17
-2903.23
-2904.01
-2868.03
-2796.15
-2691.76
-2560.95
-2412.77
-2259.06
-2105.35
-1948.06
-1785.31
-1618.56
-1448.49
-1275.02
-1098.07
-916.923
-730.433
-533.41
-322.871
-69.1833
192.776
789.623
931.11
1072.5
1207.29
1322.47
1414.56
1478.81
1511.62
1512.77
1485.8
1435.76
1368.5
1288.93
1201.34
1109.35
1015.49
921.426
828.172
736.055
644.957
554.686
465.224
377.123
292.21
214.453
147.906
92.9591
48.4886
14.3478
-9.19225
-22.2983
-25.3884
-18.7686
-2.35527
24.2338
63.4637
118.757
208.734
337.416
621.671
469.223
291.301
92.479
-118.22
-346.116
-585.218
-829.539
-1076.51
-1321.01
-1558.39
-1784.8
-1995.9
-2187.74
-2356.87
-2500.07
-2614.44
-2697.61
-2747.22
-2761.69
-2740.38
-2684.23
-2596.15
-2481.58
-2348.35
-2206.3
-2061.16
-1911.21
-1754.94
-1593.67
-1428.27
-1258.79
-1085.21
-906.932
-722.878
-528.069
-319.824
-69.8787
185.849
757.473
884.9
1013.02
1135.81
1241.36
1327.45
1389.69
1424.2
1431.01
1412.88
1373.8
1318.4
1250.55
1173.75
1091.13
1004.96
916.958
828.343
739.757
651.437
563.486
476.121
389.992
306.827
230.044
163.314
107.569
62.1034
26.8155
1.99495
-12.4335
-16.8171
-11.4085
3.89888
29.5155
67.869
122.232
210.259
332.658
597.6
459.192
297.397
116.787
-74.0093
-280.942
-498.516
-721.51
-948.293
-1174.52
-1396.2
-1610.14
-1812.39
-1999.14
-2166.87
-2312.17
-2431.75
-2522.84
-2583.15
-2610.84
-2604.68
-2565.12
-2494.32
-2396.8
-2279.2
-2149.73
-2014.1
-1872.12
-1722.8
-1567.39
-1406.96
-1241.7
-1071.71
-896.462
-714.99
-522.555
-316.841
-71.1508
177.891
721.132
836.852
953.934
1066.78
1164.36
1245.38
1305.61
1341.16
1352.24
1341.1
1310.97
1265.64
1208.18
1141.41
1067.94
989.712
908.325
825.067
740.76
655.893
570.822
485.965
402.076
320.808
245.194
178.57
122.242
75.9157
39.5706
13.526
-2.20136
-7.88327
-3.71891
10.4328
35.0098
72.396
125.696
211.498
327.638
569.257
442.525
294.258
128.923
-45.124
-234.132
-433.127
-637.394
-846.065
-1055.36
-1261.96
-1463.3
-1655.83
-1836.04
-2000.54
-2145.85
-2268.5
-2365.55
-2434.22
-2472.45
-2478.48
-2452.51
-2396.25
-2313.52
-2209.93
-2092.28
-1965.95
-1831.85
-1689.48
-1540.04
-1384.69
-1223.82
-1057.58
-885.521
-706.79
-516.905
-313.923
-72.9204
169.077
682.576
788.622
896.513
1001.01
1091.84
1168.44
1226.71
1262.81
1277.08
1271.44
1248.6
1211.71
1163.3
1105.6
1040.76
970.355
895.795
818.308
738.778
657.868
576.127
494.145
412.76
333.585
259.364
193.157
136.513
89.5145
52.2538
25.0887
8.12627
1.18226
4.11463
17.1056
40.6166
76.9738
129.097
212.432
322.358
539.038
422.297
285.667
133.53
-26.053
-199.435
-381.986
-569.441
-761.471
-954.759
-1146.59
-1334.94
-1516.66
-1688.72
-1847.93
-1990.86
-2114.12
-2214.57
-2289.29
-2336.12
-2352.98
-2339.59
-2297.09
-2228.53
-2138.55
-2032.7
-1915.93
-1789.93
-1654.72
-1511.45
-1361.39
-1205.09
-1042.76
-874.076
-698.265
-511.136
-311.087
-75.1595
159.572
643.642
741.451
841.501
938.824
1023.86
1096.5
1152.84
1189.13
1205.75
1204.44
1187.51
1157.67
1117.02
1067.4
1010.51
947.613
879.875
808.387
734.013
657.493
579.5
500.747
422.149
345.278
272.675
207.177
150.484
103.003
64.9659
36.7797
18.6429
10.4659
12.1654
23.973
46.3721
81.6203
132.441
213.067
316.831
508.153
400.034
273.479
132.78
-14.2442
-173.987
-342.089
-514.661
-691.679
-870.271
-1048.23
-1223.99
-1394.81
-1558.07
-1710.91
-1850.11
-1972.37
-2074.55
-2153.57
-2207.18
-2233
-2230.3
-2199.81
-2143.94
-2066.45
-1971.84
-1864.52
-1746.63
-1618.64
-1481.67
-1337.07
-1185.49
-1027.26
-862.119
-689.414
-505.25
-308.363
-77.8595
149.465
605.227
695.951
789.205
880.284
960.265
1029.33
1083.75
1119.96
1138.29
1140.37
1128.22
1104.25
1070.24
1027.69
978.019
922.163
861.052
795.601
726.594
654.766
580.852
505.642
430.089
355.731
284.972
220.464
163.993
116.236
77.5783
48.4888
29.2563
19.8914
20.3737
30.9898
52.2427
86.3092
135.704
213.403
311.079
477.439
376.871
259.159
128.502
-7.52024
-155.245
-310.537
-469.799
-633.267
-798.389
-963.357
-1127
-1286.98
-1441.09
-1586.76
-1721.07
-1840.89
-1943.18
-2024.82
-2083.45
-2116.68
-2123.25
-2103.51
-2059.24
-1993.42
-1909.64
-1811.69
-1701.95
-1581.25
-1450.72
-1311.72
-1165.03
-1011.07
-849.647
-680.236
-499.259
-305.775
-81.0215
138.811
567.941
652.477
739.766
825.33
900.844
966.617
1019.15
1055.07
1074.61
1079.35
1071.08
1051.96
1023.58
987.201
943.981
894.617
839.815
780.3
716.731
649.791
580.215
508.815
436.547
364.917
296.223
232.976
176.996
129.177
90.066
60.2003
39.96
29.4589
28.7426
38.158
58.2266
91.0334
138.878
213.45
305.124
447.42
353.512
243.63
121.861
-4.44353
-141.513
-285.413
-432.768
-584.018
-736.892
-889.849
-1042.08
-1191.57
-1336.48
-1474.6
-1603.3
-1719.7
-1820.88
-1903.79
-1965.99
-2005.12
-2019.49
-2009.07
-1975.15
-1920.02
-1846.45
-1757.64
-1656
-1542.61
-1418.61
-1285.34
-1143.71
-994.17
-836.654
-670.733
-493.169
-303.34
-84.6345
127.646
532.092
611.194
693.166
773.817
845.312
908.065
958.754
994.2
1014.58
1021.37
1016.25
1001.16
977.545
946.501
908.989
865.529
816.629
762.838
704.67
642.705
577.633
510.242
441.468
372.77
306.357
244.624
189.398
141.742
102.352
71.8486
50.7
39.1251
37.2387
45.4511
64.3022
95.7749
141.947
213.211
298.989
418.413
330.436
227.549
113.713
-3.93455
-131.496
-265.215
-401.882
-542.109
-683.826
-825.723
-967.252
-1106.72
-1242.6
-1373.03
-1495.67
-1607.87
-1706.93
-1789.93
-1854.38
-1898.04
-1918.88
-1916.52
-1891.81
-1846.43
-1782.46
-1702.51
-1608.87
-1502.77
-1385.36
-1257.96
-1121.51
-976.567
-823.135
-660.905
-486.986
-301.071
-88.6824
116.009
497.878
572.127
649.354
725.563
793.413
853.356
902.258
937.104
958.006
966.408
963.826
952.071
932.48
906.028
873.539
835.393
791.944
743.583
690.674
633.673
573.189
509.949
444.843
379.261
315.329
255.349
201.132
153.864
114.38
83.3867
61.4395
48.8621
45.8419
52.853
70.4551
100.519
144.899
212.702
292.697
390.6
307.958
211.362
104.661
-5.23009
-124.264
-248.82
-375.875
-506.121
-637.663
-769.4
-900.988
-1030.99
-1158.17
-1280.94
-1397.26
-1504.76
-1600.96
-1683.11
-1748.74
-1795.68
-1821.76
-1826.25
-1809.59
-1773
-1717.96
-1646.5
-1560.69
-1461.83
-1351.04
-1229.58
-1098.45
-958.258
-809.091
-650.753
-480.711
-298.968
-93.146
103.951
465.385
535.268
608.198
680.382
744.887
802.203
849.379
883.522
904.714
914.339
913.817
904.825
888.634
866.13
838.035
804.64
766.172
722.884
675.011
622.88
566.992
507.99
446.681
384.368
323.097
265.091
212.126
165.471
126.082
94.7548
72.1284
58.6292
54.5205
60.3381
76.664
105.249
147.723
211.934
286.277
364.084
286.28
195.379
95.139
-7.76077
-119.088
-235.365
-353.731
-474.924
-597.193
-719.619
-842.003
-963.122
-1081.98
-1197.26
-1307.19
-1409.67
-1502.44
-1582.97
-1648.86
-1698
-1728.2
-1738.4
-1728.73
-1700
-1653.19
-1589.79
-1511.6
-1419.87
-1315.68
-1200.24
-1074.54
-939.249
-794.523
-640.279
-474.348
-297.033
-97.9892
91.5225
434.631
500.56
569.568
638.073
699.49
754.337
799.852
833.222
854.516
865.07
866.211
859.51
846.187
827.066
802.804
773.62
739.663
701.069
657.956
610.534
559.181
504.435
447.004
388.087
329.64
273.806
222.318
176.497
137.396
105.896
82.7183
68.3866
63.2435
67.8812
82.9077
109.947
150.407
210.923
279.756
338.921
265.519
179.806
85.4557
-11.1071
-115.434
-224.208
-334.681
-447.638
-561.463
-675.347
-789.209
-902.031
-1013
-1121.05
-1224.65
-1321.94
-1410.91
-1489.22
-1554.6
-1605
-1638.32
-1653.19
-1649.5
-1627.71
-1588.41
-1532.6
-1461.74
-1376.99
-1279.37
-1169.98
-1049.81
-919.551
-779.435
-629.487
-467.9
-295.259
-103.174
78.7774
405.597
467.925
533.332
598.452
657.009
709.519
753.428
785.982
807.226
818.47
820.948
816.146
805.247
789.03
768.1
742.64
712.736
678.444
639.783
596.854
549.916
499.391
445.869
390.433
334.942
281.456
231.653
186.876
148.256
116.75
93.1562
78.0895
71.9744
75.4527
89.1617
114.595
152.943
209.687
273.162
315.12
245.748
164.802
75.8269
-14.9437
-112.901
-214.826
-318.116
-423.56
-529.659
-635.7
-741.711
-846.81
-950.372
-1051.5
-1148.89
-1240.95
-1325.85
-1401.49
-1465.74
-1516.61
-1552.15
-1570.76
-1572.09
-1556.39
-1523.87
-1475.13
-1411.28
-1333.33
-1242.18
-1138.85
-1024.28
-899.181
-763.837
-618.383
-461.364
-293.639
-108.656
65.784
378.238
437.262
499.353
561.341
617.226
667.534
709.882
741.586
762.674
774.411
777.965
774.742
765.891
752.162
734.125
711.943
685.662
655.282
620.744
582.054
539.363
492.971
443.347
391.442
339.007
288.017
240.085
196.552
158.601
127.257
103.387
87.6912
80.6741
83.0208
95.4002
119.174
155.322
208.248
266.529
292.663
227.005
150.442
66.4227
-19.0518
-111.163
-206.827
-303.54
-402.121
-501.143
-599.984
-698.748
-796.681
-893.282
-987.838
-1079.23
-1166.08
-1246.78
-1319.42
-1382.06
-1432.74
-1469.72
-1491.22
-1496.72
-1486.26
-1459.81
-1417.6
-1360.39
-1289
-1204.21
-1106.92
-998.002
-878.161
-747.743
-606.972
-454.742
-292.16
-114.385
52.6072
352.5
408.475
467.498
526.571
579.946
628.173
669.01
699.845
720.685
732.761
737.174
735.264
728.149
716.555
701.029
681.727
658.672
631.825
601.075
566.348
527.694
485.302
439.516
391.157
341.852
293.478
247.578
205.471
168.373
137.357
113.356
97.142
89.3001
90.551
101.596
123.664
157.538
206.626
259.889
271.521
209.301
136.791
57.3447
-23.2494
-109.992
-199.896
-290.585
-382.866
-475.393
-567.606
-659.682
-750.956
-841.05
-929.395
-1015.04
-1096.79
-1173.24
-1242.67
-1303.3
-1353.28
-1391.01
-1414.65
-1423.53
-1417.54
-1396.46
-1360.21
-1309.25
-1244.15
-1165.56
-1074.25
-971.015
-856.523
-731.168
-595.261
-448.029
-290.805
-120.312
39.3158
328.314
381.466
437.636
493.985
545.002
591.249
630.626
660.581
681.107
693.398
698.498
697.679
692.033
682.275
668.929
652.153
631.96
608.289
580.992
549.936
515.085
476.527
434.485
389.648
343.508
297.838
254.105
213.59
177.515
146.992
123.005
106.391
97.8077
98.0061
107.718
128.046
159.585
204.844
253.272
251.652
192.625
123.881
48.6756
-27.4131
-109.196
-193.797
-278.939
-365.424
-451.974
-538.093
-623.991
-709.1
-793.124
-875.616
-955.777
-1032.58
-1104.78
-1170.87
-1229.21
-1278.07
-1315.97
-1341.1
-1352.65
-1350.41
-1334.03
-1303.19
-1258.04
-1198.93
-1126.36
-1040.94
-943.379
-834.303
-714.133
-583.261
-441.22
-289.55
-126.378
25.985
305.616
356.137
409.643
463.435
512.231
556.599
594.563
623.64
643.799
656.2
661.841
661.933
657.538
649.357
637.903
623.339
605.681
584.855
560.69
533.008
501.709
466.79
428.367
386.989
344.015
301.11
259.653
220.873
185.981
156.108
132.279
115.385
106.15
105.347
113.736
132.299
161.459
202.924
246.711
233.009
176.958
111.721
40.4637
-31.4453
-108.636
-188.33
-268.355
-349.485
-430.528
-511.024
-591.221
-670.612
-748.983
-825.99
-900.942
-972.974
-1041.01
-1103.68
-1159.53
-1206.93
-1244.52
-1270.58
-1284.18
-1285.04
-1272.73
-1246.73
-1206.95
-1153.5
-1086.72
-1007.08
-915.16
-811.543
-696.665
-570.98
-434.309
-288.37
-132.521
12.6932
284.33
332.395
383.399
434.786
481.485
524.068
560.667
588.865
608.62
621.054
627.12
627.966
624.636
617.815
608.007
595.383
579.964
561.676
540.335
515.738
487.732
456.239
421.275
383.265
343.431
303.32
264.218
227.293
193.726
164.653
141.123
124.071
114.278
112.533
119.619
136.405
163.157
200.89
240.239
215.541
162.269
100.313
32.7428
-35.2872
-108.204
-183.349
-258.634
-334.821
-410.767
-486.069
-560.987
-635.078
-708.188
-780.055
-850.092
-917.56
-981.524
-1040.78
-1094
-1139.7
-1176.59
-1203.09
-1218.2
-1221.56
-1212.72
-1191.03
-1156.15
-1108.02
-1046.78
-972.768
-886.434
-788.295
-678.791
-558.43
-427.288
-287.233
-138.684
-0.486874
264.382
310.152
358.805
407.919
452.634
493.516
528.795
556.122
575.44
587.847
594.24
595.716
593.296
587.652
579.275
568.349
554.908
538.877
520.075
498.282
473.309
445.015
413.333
378.573
341.821
304.502
267.81
232.834
200.716
172.58
149.485
132.397
122.143
119.521
125.333
140.342
164.678
198.764
233.885
199.193
148.527
89.646
25.5275
-38.8816
-107.82
-178.733
-249.621
-321.22
-392.456
-462.949
-532.98
-602.151
-670.362
-737.419
-802.826
-865.953
-925.977
-981.841
-1032.36
-1076.18
-1112.06
-1138.6
-1154.73
-1160.06
-1154.15
-1136.24
-1105.83
-1062.65
-1006.68
-938.117
-857.28
-764.618
-660.549
-545.624
-420.147
-286.102
-144.8
-13.4751
245.705
289.315
335.755
382.724
425.556
464.81
498.813
525.281
544.15
556.477
563.118
565.118
563.476
558.848
551.719
542.285
530.587
516.562
500.035
480.78
458.583
433.256
404.666
373.015
339.26
304.705
270.443
237.488
206.924
179.847
157.316
140.311
129.695
126.268
130.844
144.092
166.021
196.566
227.677
183.908
135.695
79.7036
18.8226
-42.197
-107.421
-174.386
-241.18
-308.522
-375.385
-441.42
-506.916
-571.524
-635.183
-697.743
-758.796
-817.802
-874.043
-926.59
-974.377
-1016.18
-1050.81
-1077.06
-1093.8
-1100.65
-1097.16
-1082.55
-1056.16
-1017.55
-966.566
-903.24
-827.794
-740.572
-641.972
-532.577
-412.873
-284.942
-150.805
-26.1953
228.229
269.806
314.155
359.089
400.128
437.829
470.603
496.232
514.637
526.843
533.665
536.104
535.129
531.385
525.346
517.22
507.06
494.815
480.319
463.351
443.681
421.09
395.39
366.692
335.827
303.982
272.148
241.258
212.33
186.421
164.571
147.764
136.886
132.732
136.119
147.634
167.185
194.317
221.641
169.634
123.733
70.4627
12.6254
-45.2165
-106.962
-170.238
-233.215
-296.593
-359.389
-421.287
-482.572
-542.936
-602.358
-660.722
-717.686
-772.792
-825.42
-874.742
-919.808
-959.508
-992.736
-1018.4
-1035.41
-1043.37
-1041.87
-1030.09
-1007.28
-972.877
-926.568
-868.269
-798.066
-716.226
-623.11
-519.301
-405.458
-283.707
-156.631
-38.5715
211.888
251.544
293.916
336.914
376.249
412.465
444.052
468.861
486.796
498.851
505.803
508.606
508.206
505.229
500.145
493.167
484.363
473.694
461.01
446.097
428.72
408.636
385.618
359.703
331.606
302.393
272.962
244.156
216.925
192.272
171.209
154.71
143.668
138.869
141.125
150.95
168.171
192.035
215.8
156.32
112.599
61.8994
6.92859
-47.9267
-106.407
-166.23
-225.641
-285.32
-344.327
-402.377
-459.75
-516.173
-571.645
-626.095
-679.225
-730.652
-779.835
-826.042
-868.431
-905.985
-937.681
-962.556
-979.539
-988.262
-988.349
-978.991
-959.351
-928.777
-886.834
-833.318
-768.203
-691.654
-604
-505.822
-397.888
-282.358
-162.222
-50.5313
196.616
234.457
274.953
316.115
353.821
388.62
419.061
443.067
460.531
472.411
479.449
482.557
482.649
480.343
476.096
470.13
462.523
453.251
442.179
429.105
413.797
396.001
375.461
352.153
326.683
300.007
272.927
246.203
220.707
197.381
177.197
161.106
149.998
144.639
145.829
154.021
168.979
189.734
210.173
143.912
102.255
53.9824
1.72152
-50.3253
-105.736
-162.317
-218.393
-274.614
-330.088
-384.553
-438.288
-491.039
-542.836
-593.628
-643.167
-691.13
-737.043
-780.259
-820.028
-855.434
-885.517
-909.436
-926.161
-935.353
-936.68
-929.354
-912.506
-885.397
-847.505
-798.515
-738.299
-666.938
-584.696
-492.15
-390.152
-280.856
-167.511
-62.0091
182.353
218.475
257.193
296.604
332.757
366.198
395.534
418.757
435.75
447.44
454.53
457.889
458.41
456.689
453.178
448.102
441.552
433.516
423.877
412.446
398.999
383.283
365.021
344.136
321.144
296.893
272.094
247.427
223.682
201.735
182.508
166.915
155.832
150.003
150.202
156.83
169.609
187.429
204.775
132.36
92.6586
46.6849
-3.01359
-52.4126
-104.935
-158.467
-211.415
-264.399
-316.575
-367.692
-418.035
-467.37
-515.738
-563.118
-609.299
-654.004
-696.821
-737.179
-774.403
-807.675
-836.106
-858.938
-875.229
-884.646
-886.908
-881.276
-866.855
-842.869
-808.714
-763.986
-708.467
-642.149
-565.252
-478.311
-382.239
-279.148
-172.445
-72.9389
169.043
203.533
240.558
278.3
312.971
345.11
373.383
395.843
412.37
423.855
430.969
434.538
435.429
434.223
431.358
427.067
421.45
414.509
406.142
396.176
384.402
370.566
354.384
335.743
315.071
293.12
270.518
247.863
225.866
205.331
187.12
172.107
161.135
154.925
154.212
159.36
170.061
185.127
199.615
121.617
83.7698
39.9773
-7.29603
-54.1937
-103.99
-154.653
-204.662
-254.613
-303.7
-351.692
-398.869
-445.018
-490.192
-534.386
-577.424
-619.071
-658.962
-696.6
-731.375
-762.551
-789.316
-810.976
-826.684
-836.124
-839.067
-834.823
-822.506
-801.31
-770.583
-729.848
-678.808
-617.378
-545.716
-464.329
-374.139
-277.203
-176.964
-83.2602
156.628
189.567
224.981
261.132
294.386
325.275
352.524
374.243
390.31
401.581
408.695
412.439
413.649
412.897
410.603
407.007
402.215
396.241
389.001
380.341
370.062
357.922
343.633
327.057
308.546
288.763
268.258
247.552
227.28
208.171
191.023
176.656
165.875
159.372
157.834
161.595
170.334
182.838
194.699
111.636
75.551
33.8282
-11.1447
-55.6777
-102.899
-150.859
-198.103
-245.206
-291.401
-336.47
-380.69
-423.866
-466.056
-507.277
-547.375
-586.154
-623.29
-658.342
-690.768
-719.905
-745.01
-765.445
-780.464
-789.765
-793.17
-790.05
-779.541
-760.829
-733.23
-696.216
-649.423
-592.702
-526.151
-450.225
-365.845
-274.98
-181.02
-92.9209
145.058
176.522
210.398
245.03
276.929
306.619
332.879
353.883
369.496
380.547
387.64
391.528
393.018
392.664
390.875
387.892
383.832
378.714
372.473
364.973
356.031
345.414
332.842
318.155
301.645
283.892
265.372
246.54
227.953
210.267
194.21
180.544
170.027
163.315
161.045
163.522
170.427
180.563
190.028
102.374
67.9633
28.2084
-14.5814
-56.8762
-101.663
-147.071
-191.714
-236.141
-279.621
-321.955
-363.408
-403.806
-443.211
-481.655
-519.005
-555.093
-589.637
-622.242
-652.428
-679.591
-703.062
-722.245
-736.495
-745.532
-749.22
-746.993
-738.028
-721.516
-696.76
-663.198
-620.417
-568.204
-506.608
-436.028
-357.355
-272.445
-184.57
-101.875
134.281
164.341
196.751
229.928
260.53
289.07
314.377
334.687
349.855
360.683
367.742
371.749
373.481
373.476
372.135
369.696
366.281
361.922
356.567
350.096
342.344
333.092
322.071
309.107
294.44
278.574
261.923
244.875
227.918
211.635
196.683
183.761
173.571
166.731
163.823
165.128
170.338
178.304
185.599
93.787
60.9703
23.0881
-17.6278
-57.8009
-100.283
-143.28
-185.469
-227.378
-268.309
-308.08
-346.945
-384.747
-421.553
-457.4
-492.181
-525.747
-557.856
-588.153
-616.206
-641.474
-663.348
-681.279
-694.71
-703.384
-707.208
-705.68
-698.021
-683.449
-661.267
-630.893
-591.877
-543.964
-487.146
-421.767
-348.664
-269.57
-187.573
-110.082
124.251
152.972
183.981
215.768
245.127
272.563
296.953
316.589
331.323
341.925
348.936
353.038
354.982
355.288
354.342
352.385
349.542
345.853
341.282
335.724
329.031
321
311.373
299.975
286.995
272.874
257.969
242.608
227.215
212.3
198.452
186.302
176.495
169.603
166.152
166.402
170.062
176.06
181.402
85.8346
54.5368
18.438
-20.3056
-58.4653
-98.765
-139.48
-179.355
-218.89
-257.425
-294.791
-331.232
-366.604
-400.981
-434.405
-466.784
-497.992
-527.816
-555.936
-581.969
-605.424
-625.751
-642.445
-655.025
-663.267
-667.112
-666.118
-659.561
-646.693
-626.831
-599.388
-563.895
-520.056
-467.82
-407.471
-339.778
-266.33
-189.999
-117.516
114.922
142.366
172.037
202.493
230.661
257.035
280.541
299.525
313.835
324.209
331.162
335.341
337.467
338.048
337.453
335.924
333.587
330.492
326.614
321.865
316.111
309.168
300.793
290.809
279.37
266.855
253.569
239.792
225.884
212.292
199.532
188.172
178.792
171.918
168.02
167.335
169.597
173.824
177.424
78.4792
48.6287
14.2297
-22.6372
-58.8855
-97.1151
-135.672
-173.359
-210.659
-246.94
-282.046
-316.216
-349.316
-381.42
-412.578
-442.712
-471.712
-499.393
-525.468
-549.593
-571.323
-590.162
-605.648
-617.369
-625.125
-628.9
-628.305
-622.674
-611.296
-593.519
-568.762
-536.548
-496.553
-448.686
-393.171
-330.701
-262.711
-191.826
-124.153
106.252
132.475
160.866
190.048
217.073
242.428
265.081
283.435
297.33
307.477
314.364
318.601
320.888
321.711
321.429
320.278
318.389
315.82
312.554
308.519
303.598
297.623
290.367
281.658
271.617
260.571
248.78
236.478
223.972
211.644
199.947
189.381
180.465
173.672
169.419
167.921
168.939
171.589
173.651
71.6826
43.2139
10.4354
-24.6443
-59.0761
-95.3412
-131.853
-167.473
-202.664
-236.822
-269.807
-301.846
-332.816
-362.796
-391.837
-419.872
-446.808
-472.482
-496.637
-518.962
-539.059
-556.475
-570.793
-581.657
-588.9
-592.535
-592.229
-587.369
-577.295
-561.385
-539.083
-509.907
-473.52
-429.796
-378.903
-321.445
-258.704
-193.037
-129.979
98.201
123.258
150.424
178.384
204.314
228.688
250.518
268.26
281.753
291.673
298.487
302.769
305.194
306.23
306.224
305.409
303.919
301.813
299.087
295.683
291.498
286.381
280.125
272.561
263.784
254.075
243.655
232.719
221.523
210.395
199.724
189.947
181.52
174.865
170.346
168.155
168.082
169.346
170.062
65.4107
38.261
7.02835
-26.3487
-59.0532
-93.4536
-128.027
-161.693
-194.891
-227.05
-258.038
-288.078
-317.053
-345.045
-372.106
-398.182
-423.189
-446.985
-469.34
-489.976
-508.529
-524.592
-537.787
-547.813
-554.528
-557.973
-557.865
-553.648
-544.711
-530.474
-510.404
-484.033
-451.015
-411.199
-364.696
-312.023
-254.305
-193.625
-134.989
90.7303
114.673
140.665
167.454
192.332
215.762
236.8
253.95
267.048
276.744
283.478
287.792
290.336
291.561
291.799
291.282
290.142
288.446
286.198
283.35
279.814
275.457
270.089
263.55
255.91
247.413
238.244
228.564
218.586
208.586
198.896
189.893
181.972
175.503
170.801
168.036
167.024
167.084
166.636
59.63
33.7406
3.98305
-27.7705
-58.8324
-91.4607
-124.197
-156.012
-187.327
-217.602
-246.714
-274.876
-301.982
-328.113
-353.324
-377.567
-400.773
-422.814
-443.485
-462.535
-479.638
-494.42
-506.546
-515.759
-521.941
-525.164
-525.183
-521.5
-513.555
-500.812
-482.77
-458.978
-429.093
-392.941
-350.586
-302.457
-249.519
-193.59
-139.183
83.8024
106.679
131.546
157.213
181.08
203.603
223.874
240.453
253.166
262.64
269.287
273.622
276.267
277.657
278.112
277.858
277.029
275.694
273.865
271.506
268.544
264.857
260.277
254.652
248.033
240.629
232.595
224.062
215.207
206.26
197.501
189.248
181.841
175.6
170.792
167.564
165.759
164.791
163.35
54.3091
29.623
1.27504
-28.9302
-58.4297
-89.3725
-120.365
-150.429
-179.967
-208.465
-235.81
-262.208
-287.561
-311.951
-335.432
-357.963
-379.488
-399.89
-418.988
-436.554
-452.293
-465.871
-476.983
-485.415
-491.075
-494.054
-494.146
-490.906
-483.826
-472.417
-456.21
-434.783
-407.798
-375.065
-336.607
-292.766
-244.358
-192.94
-142.571
77.3842
99.2407
123.03
147.618
170.515
192.164
211.696
227.719
240.059
249.311
255.867
260.212
262.942
264.477
265.123
265.101
264.546
263.528
262.069
260.14
257.68
254.585
250.701
245.888
240.182
233.758
226.749
219.259
211.434
203.462
195.577
188.045
181.153
175.173
170.328
166.744
164.285
162.453
160.179
49.4179
25.8823
-1.1199
-29.848
-57.8593
-87.2005
-116.538
-144.942
-172.799
-199.621
-225.303
-250.045
-273.755
-296.513
-318.377
-339.311
-359.267
-378.141
-395.77
-411.95
-426.414
-438.862
-449.019
-456.709
-461.862
-464.584
-464.709
-461.838
-455.515
-445.294
-430.747
-411.479
-387.165
-357.608
-322.79
-282.978
-238.84
-191.692
-145.17
71.4428
92.3227
115.078
138.632
160.596
181.403
200.222
215.706
227.681
236.713
243.173
247.518
250.319
251.98
252.793
252.976
252.662
251.923
250.786
249.234
247.215
244.639
241.37
237.276
232.382
226.835
220.747
214.2
207.313
200.238
193.167
186.321
179.938
174.245
169.425
165.583
162.601
160.059
157.099
44.9278
22.4922
-3.22388
-30.5426
-57.1374
-84.955
-112.721
-139.554
-165.821
-191.061
-215.178
-238.362
-260.53
-281.763
-302.114
-321.557
-340.049
-357.499
-373.76
-388.647
-401.922
-413.314
-422.577
-429.565
-434.233
-436.698
-436.826
-434.261
-428.6
-419.439
-406.39
-389.088
-367.226
-340.603
-309.17
-273.12
-232.989
-189.867
-147.002
65.9478
85.8915
107.656
130.216
151.283
171.278
189.407
204.37
215.988
224.802
231.162
235.498
238.357
240.125
241.085
241.447
241.343
240.849
239.995
238.772
237.139
235.018
232.287
228.83
224.655
219.89
214.624
208.926
202.887
196.632
190.315
184.117
178.23
172.843
168.102
164.089
160.705
157.595
154.086
40.8116
19.4283
-5.05865
-31.0323
-56.2772
-82.646
-108.919
-134.263
-159.027
-182.774
-205.417
-227.137
-247.86
-267.662
-286.602
-304.653
-321.78
-337.903
-352.891
-366.577
-378.745
-389.151
-397.582
-403.912
-408.121
-410.334
-410.443
-408.136
-403.055
-394.839
-383.139
-367.623
-348.003
-324.078
-295.774
-263.222
-226.834
-187.495
-148.097
60.8693
79.9167
100.73
122.336
142.539
161.752
179.215
193.671
204.94
213.538
219.794
224.112
227.015
228.875
229.962
230.48
230.561
230.28
229.672
228.736
227.438
225.714
223.457
220.558
217.02
212.947
208.414
203.474
198.2
192.689
187.065
181.473
176.067
170.997
166.38
162.277
158.599
155.052
151.116
37.0441
16.667
-6.64428
-31.3346
-55.2927
-80.2834
-105.14
-129.073
-152.414
-174.751
-196.005
-216.35
-235.717
-254.182
-271.8
-288.553
-304.41
-319.3
-333.104
-345.673
-356.813
-366.306
-373.962
-379.68
-383.459
-385.428
-385.505
-383.417
-378.844
-371.472
-360.986
-347.088
-329.51
-308.056
-282.634
-253.315
-220.407
-184.611
-148.491
56.1798
74.3686
94.2682
114.957
134.33
152.789
169.607
183.571
194.499
202.882
209.03
213.321
216.258
218.195
219.39
220.044
220.285
220.189
219.795
219.107
218.101
216.722
214.877
212.469
209.491
206.029
202.146
197.881
193.291
188.453
183.462
178.434
173.488
168.742
164.285
160.16
156.287
152.418
148.168
33.6009
14.1868
-8.00092
-31.4657
-54.1984
-77.8773
-101.387
-123.982
-145.978
-166.985
-186.931
-205.983
-224.079
-241.291
-257.676
-273.218
-287.893
-301.636
-314.342
-325.875
-336.062
-344.71
-351.65
-356.802
-360.18
-361.919
-361.956
-360.053
-355.931
-349.311
-339.918
-327.481
-311.756
-292.556
-269.773
-243.432
-213.745
-181.252
-148.222
51.8536
69.2192
88.242
108.049
126.622
144.353
160.547
174.033
184.627
192.797
198.833
203.09
206.049
208.048
209.336
210.107
210.486
210.549
210.34
209.867
209.113
208.034
206.548
204.568
202.081
199.157
195.846
192.18
188.2
183.965
179.55
175.042
170.532
166.112
161.845
157.756
153.774
149.688
145.223
30.4591
11.9666
-9.14691
-31.4414
-53.0067
-75.4365
-97.6682
-118.994
-139.718
-159.469
-178.182
-196.019
-212.923
-228.963
-244.198
-258.611
-272.186
-284.864
-296.551
-307.126
-316.434
-324.3
-330.58
-335.209
-338.218
-339.742
-339.736
-337.994
-334.271
-328.323
-319.91
-308.791
-294.744
-277.592
-257.217
-233.604
-206.887
-177.463
-147.335
47.8659
64.4422
82.623
101.581
119.385
136.414
152.004
165.024
175.29
183.248
189.169
193.384
196.355
198.404
199.769
200.64
201.137
201.337
201.286
200.998
200.462
199.64
198.465
196.857
194.8
192.346