/*--------------------------------*- C++ -*----------------------------------*\
| =========                 |                                                 |
| \\      /  F ield         | OpenFOAM: The Open Source CFD Toolbox           |
|  \\    /   O peration     | Version:  v1806                                 |
|   \\  /    A nd           | Web:      www.OpenFOAM.com                      |
|    \\/     M anipulation  |                                                 |
\*---------------------------------------------------------------------------*/
FoamFile
{
    version     2.0;
    format      ascii;
    class       volScalarField;
    location    "310";
    object      p;
}
// * * * * * * * * * * * * * * * * * * * * * * * * * * * * * * * * * * * * * //

dimensions      [0 2 -2 0 0 0 0];


internalField   nonuniform List<scalar> 
10720
(
-554.682
-977.49
-1475.44
-1962.29
-2408.39
-2862.61
-3262.73
-3596.25
-3885.32
-4109.69
-4280.4
-4404.47
-4487.33
-4535.69
-4550.95
-4530.43
-4479.77
-4391.68
-4272.82
-4115.4
-3925.38
-3698.16
-3446.42
-3175.33
-2904.96
-2664.58
-2448.45
-2235.86
-2025.04
-1817.21
-1611.32
-1406.6
-1202.43
-997.563
-790.434
-574.925
-347.891
-76.2648
206.34
-126.843
262.83
683.741
1080.19
1422.93
1689.79
1859.29
1925.9
1925.75
1868.34
1758.71
1629.45
1497.95
1369.61
1248.21
1133.36
1025.77
923.198
824.222
726.085
628.531
529.77
430.327
332.474
246.903
179.665
124.873
80.3244
46.0111
22.2975
8.65301
4.45169
9.25333
23.0962
46.1167
80.6428
130.228
215.349
362.056
108.639
-213.282
-572.429
-952.247
-1341.09
-1737.91
-2121.75
-2480.74
-2811.4
-3103.75
-3356.08
-3568.75
-3742.28
-3876.69
-3971.53
-4024.6
-4039.18
-4012.9
-3948.87
-3843.64
-3700.53
-3518.16
-3306.16
-3071.08
-2830.66
-2609.68
-2405.56
-2202.21
-1998.51
-1796.22
-1594.82
-1393.75
-1192.56
-990.063
-784.781
-570.691
-344.758
-73.7017
204.415
399.181
677.297
956.316
1227.85
1469.97
1667.95
1804.18
1870.59
1876.42
1828.31
1739.6
1630.31
1513
1393.74
1276.72
1163.61
1055.45
951.431
850.558
751.063
652.451
553.573
454.915
358.807
273.568
204.374
147.209
100.216
63.5085
37.4126
21.5436
15.3596
18.3991
30.681
52.3916
85.8823
134.65
219.264
359.992
205.066
-83.6621
-407.326
-763.523
-1131.51
-1507.32
-1881.97
-2239.97
-2572.28
-2873.4
-3136.32
-3359.38
-3541.13
-3681.51
-3782.13
-3844.04
-3868.21
-3853.59
-3801.34
-3710.19
-3581.89
-3416.84
-3222.28
-3005.53
-2781.25
-2569.66
-2371.46
-2174.23
-1975.99
-1778.25
-1580.68
-1382.73
-1184.04
-983.529
-779.789
-566.916
-341.98
-72.0889
202.668
466.494
721.97
977.521
1221.43
1434.55
1607.69
1728.68
1793.34
1806.58
1772.86
1702.39
1608.5
1501.97
1390
1277.48
1167.09
1060.28
957.049
856.754
758.122
660.477
563.047
466.201
372.058
287.209
216.715
158.345
110.321
72.6304
45.5379
28.7268
21.6517
23.865
35.3938
56.4741
89.4655
137.85
221.747
356.635
353.29
110.78
-165.244
-467.981
-784.917
-1115.57
-1450.34
-1778.91
-2093.65
-2388.12
-2655.96
-2893.4
-3097.66
-3267.4
-3401.47
-3499.95
-3561.08
-3583.04
-3565.48
-3507.73
-3410.76
-3275.83
-3108.83
-2917.41
-2714.26
-2516.64
-2327.99
-2139.25
-1948.1
-1756.1
-1563.3
-1369.27
-1173.76
-975.796
-774.052
-562.791
-339.232
-71.2434
200.011
571.093
781.26
993.068
1198.95
1381.14
1532.56
1642.43
1706.29
1726.12
1704.7
1650.1
1572.14
1479.48
1378.78
1274.78
1170.45
1067.57
966.842
868.087
770.59
673.862
577.513
481.964
389.215
304.687
233.152
173.54
124.215
85.1219
56.558
38.2807
29.8043
30.7352
41.1342
61.2803
93.5245
141.277
224.022
353.11
401.524
185.714
-61.118
-333.776
-620.058
-922.267
-1232.4
-1541.04
-1842.32
-2129.65
-2396.5
-2638.37
-2851.44
-3032.74
-3180.13
-3292.29
-3366.87
-3403.23
-3400.51
-3358.71
-3278.51
-3161.62
-3012.9
-2839.61
-2652.69
-2466.52
-2285.79
-2104.16
-1919.25
-1732.53
-1544.32
-1354.25
-1162.08
-966.906
-767.454
-558.138
-336.35
-70.8789
196.003
595.866
782.371
970.782
1153.82
1315.81
1452.03
1553.75
1616.82
1641.79
1630.73
1589.84
1526.45
1447.2
1357.83
1262.83
1165.23
1067.13
969.702
873.284
777.647
682.55
587.872
494.112
403.134
319.434
247.377
186.808
136.426
96.189
66.4158
46.935
37.3248
37.2214
46.6943
66.0497
97.6249
144.73
226.158
349.382
433.879
242.697
22.8147
-219.953
-475.01
-746.391
-1026.62
-1308.21
-1586.85
-1856.5
-2111.6
-2347.78
-2560.86
-2747.24
-2904.19
-3029.43
-3120.83
-3176.92
-3196.08
-3177.46
-3121
-3028.09
-2902.62
-2751.19
-2583.28
-2411.03
-2240.07
-2066.61
-1888.67
-1707.7
-1524.32
-1338.33
-1149.61
-957.344
-760.327
-553.175
-333.482
-71.1716
190.674
606.02
770.542
937.879
1101.58
1247.19
1371.21
1466.46
1528.59
1557.26
1554.47
1524.9
1474.18
1407.47
1329.48
1244.21
1154.51
1062.52
969.693
876.728
783.806
690.968
598.343
506.54
417.34
334.575
262.218
200.816
149.462
108.124
77.134
56.4
45.5624
44.3005
52.7135
71.1479
101.927
148.242
228.079
345.347
442.061
269.525
70.5313
-149.374
-379.984
-626.714
-882.897
-1141.97
-1401.05
-1654.7
-1898.1
-2127.28
-2337.92
-2526.17
-2688.8
-2822.87
-2925.64
-2994.71
-3028.11
-3024.75
-2984.61
-2909.02
-2801.32
-2667.43
-2515.53
-2355.76
-2193.98
-2028.34
-1857.26
-1682.05
-1503.54
-1321.72
-1136.53
-947.259
-752.801
-547.993
-330.706
-72.1794
184.085
597.564
745.686
897.065
1045.73
1178.41
1292.63
1382.49
1443.42
1474.71
1478.38
1458.03
1418.09
1362.61
1295.37
1219.75
1138.28
1052.99
965.47
876.656
787.052
696.979
606.802
517.24
430.008
348.442
276.163
214.214
162.083
119.786
87.6805
65.7624
53.7494
51.3698
58.7542
76.2824
106.246
151.703
229.713
341.031
439.573
282.938
101.876
-98.0541
-307.181
-531.673
-765.386
-1002.6
-1241.42
-1477.21
-1705.78
-1923.79
-2127.25
-2312.36
-2475.68
-2613.98
-2724.09
-2803.56
-2850.22
-2862.44
-2839.62
-2782.53
-2693.74
-2578.24
-2443.06
-2296.7
-2145.02
-1987.82
-1824.06
-1655
-1481.69
-1304.28
-1122.81
-936.689
-744.932
-542.632
-328.022
-73.8399
176.329
580.944
715.288
853.32
989.496
1111.48
1217.54
1302.68
1362.21
1395.28
1403.89
1390.94
1360.02
1314.34
1256.93
1190.57
1117.39
1039.22
957.605
873.62
787.977
701.223
613.92
526.898
441.821
361.68
289.785
227.525
174.773
131.628
98.4814
75.4191
62.2423
58.7313
65.0507
81.6173
110.685
155.159
231.082
336.473
429.013
285.591
119.586
-63.5857
-254.598
-460.007
-674.248
-892.152
-1112.66
-1331.72
-1545.79
-1752.19
-1947.25
-2127.42
-2289.32
-2429.56
-2544.77
-2632.13
-2689.1
-2713.56
-2704.54
-2662.58
-2589.74
-2490.29
-2370.19
-2236.5
-2094.78
-1945.96
-1789.57
-1626.8
-1458.82
-1286
-1108.44
-925.642
-736.747
-537.13
-325.41
-76.0475
167.578
558.64
681.616
808.559
934.28
1047.21
1146.4
1227.31
1285.28
1319.49
1331.86
1324.81
1301.33
1264.08
1215.44
1157.7
1092.56
1021.6
946.224
867.515
786.311
703.325
619.275
535.078
452.371
373.891
302.693
240.393
187.214
143.368
109.288
85.1518
70.8497
66.2234
71.4742
87.0566
115.172
158.559
232.165
331.672
413.835
281.755
128.752
-39.8707
-215.16
-403.825
-600.684
-801.076
-1004.53
-1207.48
-1407.01
-1600.97
-1786.09
-1959.25
-2117.23
-2256.61
-2374.06
-2466.51
-2531.36
-2566.31
-2569.85
-2542.1
-2484.5
-2400.51
-2295.09
-2174.06
-2042.57
-1902.37
-1753.56
-1597.29
-1434.88
-1266.83
-1093.36
-914.081
-728.236
-531.508
-322.875
-78.7421
158.034
533.413
646.694
764.171
880.932
986.095
1079.32
1156.4
1212.68
1247.55
1262.73
1260.36
1242.99
1212.87
1171.95
1122.05
1064.52
1000.65
931.655
858.531
782.156
703.336
622.891
541.812
461.704
385.126
314.925
252.859
199.453
155.058
120.156
95.018
79.6301
73.9012
78.0699
92.6319
119.725
161.909
232.968
326.643
395.761
273.479
131.752
-24.2371
-185.834
-359.833
-541.357
-726.165
-914.126
-1102.15
-1287.85
-1469.55
-1644.38
-1809.62
-1962.33
-2099.28
-2217.15
-2312.88
-2383.59
-2426.96
-2440.93
-2425.3
-2381.06
-2310.96
-2219.08
-2110.17
-1988.82
-1857.29
-1716.14
-1566.54
-1409.86
-1246.77
-1077.58
-901.995
-719.394
-525.772
-320.441
-81.9013
147.831
506.655
611.6
720.886
829.879
928.278
1016.23
1089.78
1144.35
1179.46
1196.73
1198.04
1185.66
1161.55
1127.31
1084.44
1033.97
976.908
914.24
846.847
775.56
701.213
624.682
546.986
469.701
395.26
326.345
264.789
211.372
166.591
130.995
104.942
88.5203
81.7134
84.7976
98.3116
124.317
165.185
233.492
321.406
376.087
262.395
130.584
-14.287
-163.856
-324.882
-492.749
-663.542
-837.424
-1011.64
-1184.25
-1353.97
-1518.34
-1675.03
-1821.41
-1954.48
-2071.11
-2168.25
-2242.94
-2292.87
-2315.64
-2310.67
-2278.5
-2221.19
-2142.03
-2044.81
-1933.53
-1810.73
-1677.33
-1534.54
-1383.76
-1225.8
-1061.07
-889.38
-710.219
-519.932
-318.138
-85.5224
137.044
479.39
577.056
679.172
781.317
873.763
956.996
1027.25
1080.09
1115.13
1133.91
1138.11
1129.81
1110.72
1082.23
1045.58
1001.54
950.879
894.36
832.702
766.648
697.001
624.638
550.564
476.323
404.251
336.896
276.124
222.92
177.93
141.775
114.905
97.5103
89.655
91.6542
104.091
128.941
168.377
233.744
315.979
355.658
249.549
126.529
-8.48639
-147.407
-296.903
-452.584
-610.786
-771.908
-933.499
-1093.9
-1252.21
-1406.3
-1554.24
-1693.71
-1822
-1936.18
-2033.34
-2110.49
-2165.33
-2195.3
-2199.38
-2177.75
-2131.93
-2064.45
-1978.31
-1876.89
-1762.78
-1637.18
-1501.31
-1356.58
-1203.93
-1043.84
-876.229
-700.713
-513.995
-315.987
-89.5931
125.715
452.228
543.502
639.242
735.291
822.431
901.391
968.563
1019.68
1054.42
1074.25
1080.72
1075.7
1060.8
1037.24
1006.03
967.787
923.05
872.397
816.372
755.587
690.773
622.755
552.508
481.518
412.035
346.498
286.778
234.015
189
152.434
124.857
106.559
97.6941
98.6145
109.949
133.578
171.471
233.728
310.386
335.044
235.692
120.536
-5.66935
-135.086
-274.27
-419.029
-565.89
-715.451
-865.479
-1014.56
-1162.09
-1306.25
-1445.43
-1577.67
-1700.55
-1811.34
-1907.33
-1985.61
-2043.88
-2079.58
-2091.29
-2078.86
-2043.32
-1986.58
-1910.9
-1819.06
-1713.55
-1595.74
-1466.87
-1328.34
-1181.14
-1025.87
-862.537
-690.877
-507.966
-314.006
-94.0985
113.887
425.601
511.17
601.225
691.778
774.156
849.194
913.461
962.891
997.151
1017.68
1025.9
1023.55
1012.13
992.745
966.283
933.197
893.882
848.739
798.146
742.57
682.632
619.08
552.82
485.262
418.57
355.092
296.681
244.591
199.742
162.922
134.756
115.636
105.806
105.66
115.87
138.214
174.454
233.456
304.647
314.627
221.354
113.275
-4.99759
-125.889
-255.805
-390.712
-527.344
-666.401
-805.835
-944.467
-1081.9
-1216.61
-1347.26
-1472.17
-1589.23
-1695.99
-1789.91
-1868.24
-1928.69
-1968.79
-1986.78
-1982.25
-1955.79
-1908.78
-1842.86
-1760.24
-1663.17
-1553.11
-1431.28
-1299.04
-1157.46
-1007.17
-848.302
-680.71
-501.845
-312.194
-99.0211
101.611
399.778
480.218
565.13
650.715
728.766
800.183
861.719
909.482
943.138
964.079
973.638
973.442
964.918
949.077
926.717
898.2
863.792
823.752
778.316
727.804
672.712
613.681
551.522
487.542
423.819
362.622
305.764
254.575
210.089
173.178
144.551
124.699
113.959
112.764
121.832
142.829
177.314
232.939
298.788
294.665
206.905
105.238
-5.84769
-119.046
-240.573
-366.56
-493.924
-623.422
-753.168
-882.179
-1010.22
-1135.98
-1258.38
-1376.04
-1487.09
-1589.35
-1680.51
-1758
-1819.55
-1862.88
-1885.95
-1888.09
-1869.57
-1831.32
-1774.45
-1700.61
-1611.77
-1509.37
-1394.58
-1268.73
-1132.87
-987.742
-833.523
-670.211
-495.634
-310.552
-104.325
88.9382
374.922
450.721
530.958
612.007
686.096
754.157
813.117
859.243
892.197
913.334
923.908
925.44
919.309
906.466
887.645
863.138
833.136
797.776
757.174
711.52
661.173
606.653
548.654
488.366
427.77
369.047
313.967
263.902
219.977
183.143
154.192
133.708
122.119
119.9
127.811
147.407
180.039
232.193
292.835
275.342
192.599
96.773
-7.75855
-113.977
-227.874
-345.764
-464.692
-585.473
-706.37
-826.519
-945.816
-1063.17
-1177.71
-1288.28
-1393.28
-1490.77
-1578.67
-1654.61
-1716.37
-1761.88
-1788.92
-1796.63
-1784.97
-1754.52
-1705.94
-1640.4
-1559.52
-1464.63
-1356.85
-1237.43
-1107.42
-967.588
-818.205
-659.384
-489.335
-309.071
-109.971
75.9228
351.131
422.709
498.663
575.544
645.99
710.917
767.437
811.967
844.144
865.309
876.627
879.542
875.392
865.086
849.303
828.309
802.23
771.126
735.009
693.955
648.195
598.117
544.286
487.762
430.414
374.337
321.24
272.51
229.342
192.759
163.625
142.615
130.247
127.039
133.784
151.927
182.618
231.232
286.813
256.767
178.615
88.1577
-10.3895
-110.223
-217.171
-327.661
-438.898
-551.709
-664.487
-776.475
-887.688
-997.181
-1104.28
-1208.01
-1307
-1399.58
-1483.86
-1557.69
-1618.95
-1665.72
-1695.78
-1708.02
-1702.22
-1678.65
-1637.61
-1579.83
-1506.57
-1419.01
-1318.18
-1205.21
-1081.13
-946.728
-802.355
-648.234
-482.943
-307.744
-115.912
62.634
328.455
396.167
468.182
541.215
608.282
670.283
724.483
767.449
798.812
819.866
831.718
835.736
833.224
825.056
811.882
793.948
771.345
744.078
712.084
675.34
633.961
588.206
538.505
485.775
431.764
378.473
327.54
280.344
238.124
201.963
172.795
151.374
138.303
134.146
139.723
156.369
185.042
230.076
280.754
239.007
165.085
79.5634
-13.466
-107.46
-208.025
-311.741
-415.927
-521.445
-626.77
-731.245
-834.969
-937.135
-1037.2
-1134.39
-1227.52
-1315.15
-1395.59
-1466.89
-1527.08
-1574.33
-1606.55
-1622.41
-1621.53
-1603.96
-1569.71
-1519.12
-1453.12
-1372.66
-1278.65
-1172.12
-1054.03
-925.183
-785.985
-636.762
-476.459
-306.557
-122.099
49.1383
306.916
371.065
439.437
508.905
572.816
632.071
684.071
725.515
756.027
776.867
789.082
793.973
792.813
786.451
775.514
760.241
740.706
716.878
688.643
655.9
618.66
577.062
531.406
482.465
431.849
381.453
332.838
287.355
246.266
210.699
181.646
159.933
146.244
141.185
145.599
160.714
187.303
228.742
274.687
222.104
152.093
71.1343
-16.8026
-105.413
-200.112
-297.592
-395.31
-494.125
-592.596
-690.137
-786.93
-882.264
-975.729
-1066.7
-1154.17
-1236.88
-1313.36
-1381.84
-1440.49
-1487.6
-1521.23
-1539.9
-1543.08
-1530.67
-1502.48
-1458.5
-1399.34
-1325.71
-1238.37
-1138.23
-1026.18
-902.982
-769.108
-624.976
-469.877
-305.491
-128.479
35.5058
286.509
347.363
412.35
478.503
539.462
596.12
646.032
685.997
715.64
736.187
748.632
754.209
754.161
749.324
740.303
727.34
710.502
689.741
664.909
635.846
602.481
564.845
523.112
477.912
430.709
383.284
337.114
293.504
253.716
218.909
190.121
168.242
154.023
148.12
151.381
164.939
189.393
227.251
268.639
206.07
139.691
62.9716
-20.2438
-103.883
-193.161
-284.894
-376.653
-469.291
-561.445
-652.6
-742.973
-831.962
-919.243
-1004.33
-1086.36
-1164.25
-1236.72
-1302.16
-1358.94
-1405.39
-1439.78
-1460.53
-1467.01
-1459
-1436.15
-1398.2
-1345.43
-1278.32
-1197.48
-1103.65
-997.63
-880.161
-751.744
-612.883
-463.188
-304.52
-134.992
21.8139
267.223
325.011
386.842
449.896
508.085
562.294
610.215
648.748
677.514
697.703
710.265
716.378
717.248
713.696
706.315
695.353
680.882
662.847
641.078
615.378
585.607
551.712
513.749
472.204
428.397
383.987
340.36
298.76
260.429
226.541
198.166
176.246
161.594
154.908
157.037
169.023
191.307
225.623
262.641
190.908
127.913
55.1389
-23.6811
-102.709
-186.966
-273.38
-359.635
-446.56
-532.885
-618.136
-702.574
-785.662
-867.165
-946.705
-1023.54
-1096.76
-1165.23
-1227.52
-1282.15
-1327.53
-1362.15
-1384.36
-1393.43
-1389.12
-1370.95
-1338.43
-1291.59
-1230.66
-1156.08
-1068.45
-968.447
-856.762
-733.919
-600.49
-456.386
-303.619
-141.575
8.14332
249.026
303.955
362.832
422.98
478.561
530.455
576.477
613.619
641.509
661.298
673.894
680.412
682.036
679.569
673.594
664.368
651.97
636.345
617.321
594.674
568.217
537.821
503.443
465.439
424.98
383.6
342.582
303.103
266.367
233.544
205.727
183.894
168.908
161.507
162.533
172.945
193.039
223.878
256.721
176.61
116.772
47.6882
-27.0294
-101.778
-181.36
-262.841
-343.995
-425.642
-506.565
-586.354
-665.285
-742.89
-819.001
-893.327
-965.24
-1033.95
-1098.48
-1157.57
-1209.86
-1253.87
-1288.25
-1311.37
-1322.45
-1321.19
-1307.04
-1279.39
-1238
-1182.89
-1114.33
-1032.75
-938.71
-832.835
-715.658
-587.808
-449.459
-302.752
-148.169
-5.43085
231.882
284.143
340.246
397.657
450.783
500.482
544.688
580.485
607.498
626.858
639.416
646.24
648.485
646.938
642.166
634.441
623.854
610.358
593.781
573.892
550.47
523.325
492.331
457.726
420.537
382.167
343.797
306.522
271.499
239.877
212.753
191.132
175.915
167.874
167.836
176.683
194.586
222.033
250.906
163.155
106.275
40.6479
-30.2298
-100.984
-176.214
-253.104
-329.523
-406.268
-482.195
-556.92
-630.745
-703.249
-774.325
-843.756
-911.01
-975.415
-1036.1
-1091.97
-1141.79
-1184.2
-1217.97
-1241.55
-1254.11
-1255.31
-1244.61
-1221.27
-1184.86
-1135.2
-1072.37
-996.657
-908.498
-808.439
-696.998
-574.847
-442.398
-301.883
-154.707
-18.8258
215.757
265.511
319.009
373.843
424.645
472.256
514.725
549.218
575.374
594.279
606.746
613.791
616.543
615.771
612.032
605.611
596.606
584.985
570.587
553.177
532.515
508.369
480.547
449.177
415.153
379.744
344.029
309.019
275.804
245.501
219.198
197.912
182.567
173.965
172.91
180.215
195.943
220.108
245.222
150.517
96.4185
34.0377
-33.2398
-100.255
-171.422
-244.029
-316.038
-388.23
-459.515
-529.541
-598.62
-666.385
-732.772
-797.613
-860.47
-920.764
-977.738
-1030.42
-1077.7
-1118.34
-1151.21
-1174.85
-1188.44
-1191.6
-1183.8
-1164.25
-1132.34
-1087.74
-1030.34
-960.293
-877.909
-783.635
-677.972
-561.622
-435.184
-300.972
-161.121
-31.9626
200.609
248.007
299.046
351.441
400.041
445.667
486.477
519.717
545.027
563.46
575.792
582.994
586.16
586.043
583.192
577.899
570.277
560.305
547.837
532.647
514.485
493.088
468.214
439.904
408.915
376.396
343.318
310.602
279.269
250.387
225.02
204.184
188.817
179.735
177.72
183.52
197.108
218.118
239.691
138.669
87.1909
27.8647
-36.0297
-99.5404
-166.903
-235.506
-303.403
-371.354
-438.317
-503.978
-568.644
-631.996
-694.009
-754.557
-813.27
-869.66
-923.066
-972.622
-1017.35
-1056.09
-1087.83
-1111.24
-1125.45
-1130.12
-1124.74
-1108.48
-1080.62
-1040.67
-988.399
-923.792
-847.035
-758.491
-658.627
-548.14
-427.81
-299.972
-167.343
-44.7623
186.395
231.572
280.287
330.369
376.883
420.619
459.837
491.87
516.353
534.307
546.472
553.774
557.278
557.716
555.628
551.312
544.896
536.373
525.614
512.405
496.496
477.605
455.456
430.013
401.919
372.194
341.709
311.293
281.891
254.511
230.183
209.906
194.618
185.142
182.232
186.577
198.078
216.078
234.332
127.583
78.5734
22.1321
-38.5777
-98.7959
-162.589
-227.444
-291.497
-355.489
-418.424
-480.021
-540.584
-599.83
-657.76
-714.293
-769.111
-821.801
-871.791
-918.309
-960.484
-997.268
-1027.7
-1050.61
-1065.13
-1070.92
-1067.52
-1054.1
-1029.85
-994.171
-946.688
-887.273
-815.985
-733.085
-639
-534.428
-420.256
-298.841
-173.316
-57.1499
173.073
216.151
262.666
310.558
355.085
397.024
434.715
465.581
489.257
506.73
518.703
526.06
529.835
530.743
529.313
525.846
520.484
513.233
503.984
492.537
478.648
462.033
442.388
419.619
394.26
367.214
339.253
311.121
283.675
257.86
234.657
215.038
199.927
190.146
186.413
189.366
198.85
213.999
229.162
117.226
70.5513
16.8311
-40.8694
-97.9925
-158.429
-219.765
-280.225
-340.513
-399.692
-457.5
-514.242
-569.659
-623.784
-676.559
-727.718
-776.914
-823.645
-867.23
-906.889
-941.676
-970.689
-992.905
-1007.45
-1014.02
-1012.23
-1001.23
-980.181
-948.381
-905.36
-850.869
-784.858
-707.496
-619.145
-520.493
-412.514
-297.538
-178.97
-69.0551
160.598
201.692
246.123
291.931
334.57
374.793
411.02
440.762
463.651
480.644
492.407
499.784
503.779
505.084
504.22
501.491
497.048
490.913
482.995
473.111
461.03
446.471
429.116
408.823
386.03
361.534
336.012
310.121
284.636
260.427
238.42
219.546
204.704
194.706
190.231
191.867
199.422
211.891
224.191
107.563
63.0997
11.9557
-42.9009
-97.1072
-154.386
-212.414
-269.502
-326.325
-381.992
-436.259
-489.438
-541.289
-591.858
-641.12
-688.852
-734.753
-778.388
-819.154
-856.35
-889.131
-916.65
-938.012
-952.375
-959.458
-958.924
-949.976
-931.732
-903.445
-864.555
-814.713
-753.77
-681.801
-599.117
-506.362
-404.567
-296.008
-184.249
-80.405
148.93
188.143
230.593
274.418
315.258
353.843
388.669
417.325
439.45
455.967
467.508
474.876
479.045
480.689
480.311
478.223
474.583
469.427
462.681
454.182
443.715
431.006
415.731
397.718
377.319
355.232
332.047
308.337
284.795
262.215
241.456
223.402
208.916
198.788
193.655
194.062
199.79
209.76
219.428
98.5649
56.1953
7.49409
-44.6725
-96.1242
-150.423
-205.339
-259.257
-312.831
-365.211
-416.173
-466.022
-514.543
-561.796
-607.775
-652.291
-695.091
-735.791
-773.863
-808.674
-839.465
-865.449
-885.844
-899.843
-907.203
-907.642
-900.41
-884.619
-859.49
-824.403
-778.926
-722.825
-656.089
-578.964
-492.056
-396.403
-294.217
-189.091
-91.1346
138.027
175.452
216.022
257.959
297.081
334.102
367.583
395.193
416.578
432.623
443.933
451.27
455.574
457.506
457.549
456.019
453.081
448.781
443.066
435.792
426.76
415.709
402.319
386.395
368.216
348.388
327.424
305.818
284.183
263.232
243.758
226.586
212.534
202.36
196.66
195.933
199.952
207.61
214.874
90.1964
49.8152
3.43056
-46.1857
-95.0345
-146.52
-198.503
-249.442
-299.964
-349.265
-397.132
-443.87
-489.282
-533.434
-576.343
-617.847
-657.733
-695.66
-731.161
-763.674
-792.512
-816.944
-836.294
-849.797
-857.242
-858.405
-852.594
-838.936
-816.634
-785.029
-743.632
-692.131
-630.443
-558.748
-477.596
-388.017
-292.121
-193.448
-101.193
127.849
163.576
202.355
242.493
279.974
315.498
347.688
374.293
394.96
410.543
421.613
428.9
433.31
435.484
435.892
434.847
432.523
428.974
424.164
417.972
410.213
400.643
388.954
374.933
358.8
341.08
322.21
302.617
282.834
263.498
245.327
229.083
215.534
205.395
199.22
197.465
199.902
205.442
210.528
82.4263
43.9337
-0.249993
-47.4473
-93.8333
-142.66
-191.875
-240.009
-287.666
-334.075
-379.045
-422.87
-465.374
-506.629
-546.668
-585.352
-622.499
-657.811
-690.872
-721.182
-748.116
-771.008
-789.259
-802.162
-809.541
-811.222
-806.575
-794.758
-774.974
-746.547
-708.943
-661.794
-604.947
-538.523
-463.01
-379.403
-289.684
-197.272
-110.532
118.356
152.468
189.542
227.959
263.875
297.965
328.916
354.555
374.526
389.655
400.485
407.707
412.197
414.574
415.296
414.675
412.885
409.995
405.981
400.74
394.109
385.86
375.699
363.406
349.149
333.38
316.474
298.79
280.79
263.035
246.17
230.889
217.901
207.873
201.317
198.644
199.637
203.254
206.383
75.2218
38.5255
-3.56482
-48.4653
-92.5178
-138.827
-185.428
-230.917
-275.876
-319.569
-361.826
-402.925
-442.709
-481.259
-518.611
-554.654
-589.23
-622.08
-652.832
-681.036
-706.133
-727.507
-744.634
-756.868
-764.061
-766.088
-762.382
-752.144
-734.597
-709.057
-674.966
-631.91
-579.685
-518.349
-448.328
-370.554
-286.877
-200.524
-119.107
109.512
142.086
177.532
214.307
248.724
281.444
311.206
335.911
355.21
369.897
380.483
387.628
392.175
394.725
395.717
395.465
394.144
391.828
388.513
384.11
378.475
371.4
362.607
351.875
339.33
325.358
310.279
294.393
278.095
261.875
246.303
232.004
219.624
209.777
202.934
199.458
199.151
201.041
202.429
68.5518
33.5662
-6.53206
-49.2495
-91.0884
-135.016
-179.142
-222.137
-264.552
-305.694
-345.402
-383.947
-421.186
-457.204
-492.047
-525.619
-557.786
-588.322
-616.89
-643.092
-666.422
-686.319
-702.313
-713.831
-720.749
-722.985
-720.031
-711.144
-695.573
-672.647
-641.793
-602.572
-554.733
-498.283
-433.579
-361.477
-283.672
-203.168
-126.889
101.279
132.388
166.28
201.485
234.469
265.874
294.494
318.301
336.951
351.204
361.547
368.605
373.19
375.884
377.111
377.179
376.266
374.456
371.752
368.085
363.328
357.293
349.72
340.394
329.405
317.081
303.691
289.486
274.8
260.053
245.747
232.437
220.702
211.1
204.059
199.897
198.439
198.796
198.651
62.3874
29.0305
-9.17006
-49.8113
-89.5497
-131.218
-173.005
-213.643
-253.663
-292.403
-329.716
-365.868
-400.724
-434.373
-466.867
-498.127
-528.036
-556.397
-582.91
-607.215
-628.856
-647.326
-662.2
-672.976
-679.548
-681.88
-679.523
-671.787
-657.958
-637.388
-609.509
-573.865
-530.169
-478.384
-418.794
-352.175
-280.056
-205.183
-133.849
93.6229
123.333
155.742
189.445
221.057
251.201
278.723
301.667
319.688
333.518
343.62
350.582
355.19
358.004
359.434
359.779
359.223
357.854
355.685
352.663
348.679
343.563
337.077
329.011
319.428
308.606
296.769
284.124
270.952
257.61
244.532
232.204
221.14
211.839
204.686
199.956
197.497
196.511
195.031
56.6979
24.8948
-11.4978
-50.1626
-87.9056
-127.431
-167.001
-205.412
-243.173
-279.651
-314.716
-348.62
-381.243
-412.676
-442.975
-472.071
-499.866
-526.187
-550.766
-573.279
-593.315
-610.414
-624.193
-634.215
-640.398
-642.738
-640.848
-634.088
-621.793
-603.343
-578.187
-545.863
-506.062
-458.704
-404.01
-342.659
-276.017
-206.55
-139.972
86.5106
114.886
145.876
178.143
208.439
237.375
263.841
285.95
303.365
316.784
326.646
333.507
338.124
341.036
342.638
343.226
342.981
341.996
340.295
337.838
334.532
330.226
324.704
317.765
309.448
299.987
289.57
278.365
266.605
254.59
242.69
231.327
220.95
211.998
204.813
199.629
196.317
194.175
191.549
51.4558
21.1352
-13.5337
-50.3168
-86.163
-123.655
-161.125
-197.43
-233.057
-267.405
-300.353
-332.149
-362.679
-392.036
-420.28
-447.355
-473.172
-497.582
-520.346
-541.172
-559.686
-575.475
-588.194
-597.468
-603.233
-605.516
-603.981
-598.049
-587.103
-570.558
-547.886
-518.632
-482.474
-439.296
-389.259
-332.945
-271.549
-207.259
-145.249
79.9103
107.01
136.643
167.534
196.57
224.344
249.796
271.103
287.93
300.948
310.572
317.327
321.941
324.932
326.682
327.479
327.504
326.854
325.561
323.598
320.885
317.293
312.623
306.688
299.506
291.274
282.148
272.263
261.81
251.038
240.26
229.835
220.151
211.586
204.444
198.917
194.898
191.775
188.182
46.6342
17.7289
-15.296
-50.2854
-84.3289
-119.888
-155.368
-189.68
-223.29
-255.631
-286.59
-316.405
-344.973
-372.387
-398.709
-423.891
-447.861
-470.484
-491.545
-510.783
-527.865
-542.41
-554.113
-562.653
-567.983
-570.16
-568.896
-563.666
-553.902
-539.066
-518.655
-492.229
-459.462
-420.209
-374.578
-323.052
-266.659
-207.309
-149.678
73.7899
99.6723
128.005
157.578
185.406
212.065
236.539
257.073
273.332
285.96
295.347
301.992
306.593
309.647
311.521
312.5
312.759
312.4
311.462
309.928
307.736
304.768
300.849
295.805
289.637
282.509
274.55
265.869
256.618
247.002
237.283
227.761
218.766
210.621
203.586
197.822
193.234
189.3
184.907
42.2071
14.6523
-16.8025
-50.0823
-82.4114
-116.134
-149.726
-182.151
-213.857
-244.304
-273.391
-301.345
-328.072
-353.668
-378.192
-401.606
-423.848
-444.8
-464.269
-482.02
-497.751
-511.122
-521.857
-529.686
-534.579
-536.618
-535.553
-530.918
-522.195
-508.888
-490.528
-466.699
-437.074
-401.49
-360.002
-313.002
-261.357
-206.709
-153.269
68.1212
92.8382
119.927
148.236
174.905
200.493
224.027
243.814
259.524
271.771
280.926
287.456
292.033
295.136
297.115
298.248
298.71
298.603
297.973
296.813
295.073
292.652
289.394
285.137
279.871
273.731
266.823
259.232
251.079
242.532
233.803
225.143
216.826
209.124
202.255
196.348
191.324
186.737
181.699
38.1493
11.8852
-18.0714
-49.7208
-80.4176
-112.395
-144.195
-174.834
-204.739
-233.4
-260.722
-286.928
-311.931
-335.822
-358.666
-380.428
-401.057
-420.448
-438.429
-454.789
-469.255
-481.522
-491.341
-498.488
-502.951
-504.827
-503.909
-499.779
-491.971
-480.032
-463.531
-442.076
-415.351
-383.178
-345.567
-302.823
-255.663
-205.472
-156.034
62.876
86.4789
112.376
139.472
165.029
189.588
212.217
231.282
246.46
258.337
267.261
273.674
278.218
281.355
283.421
284.686
285.323
285.433
285.069
284.234
282.886
280.942
278.263
274.7
270.233
264.973
259.006
252.397
245.243
237.676
229.867
222.023
214.365
207.12
200.467
194.506
189.168
184.075
178.535
34.437
9.40604
-19.1194
-49.2137
-78.3574
-108.675
-138.773
-167.721
-195.923
-222.898
-248.561
-273.124
-296.507
-318.803
-340.074
-360.293
-379.417
-397.353
-413.946
-429.007
-442.29
-453.522
-462.482
-468.981
-473.026
-474.728
-473.915
-470.214
-463.212
-452.497
-437.676
-418.387
-394.327
-365.309
-331.307
-292.546
-249.601
-203.622
-157.995
58.0282
80.5639
105.32
131.253
155.742
179.31
201.066
219.436
234.099
245.614
254.309
260.602
265.106
268.266
270.402
271.777
272.563
272.86
272.726
272.17
271.163
269.633
267.458
264.505
260.744
256.265
251.136
245.408
239.155
232.481
225.522
218.442
211.422
204.641
198.245
192.308
186.766
181.301
175.391
31.047
7.19534
-19.9631
-48.5739
-76.238
-104.978
-133.46
-160.805
-187.397
-212.782
-236.881
-259.899
-281.764
-302.564
-322.366
-341.144
-358.864
-375.443
-390.745
-404.595
-416.776
-427.041
-435.197
-441.087
-444.733
-446.256
-445.516
-442.184
-435.891
-426.27
-412.967
-395.647
-374.027
-347.915
-317.255
-282.202
-243.2
-201.187
-159.184
53.5517
75.0664
98.7271
123.545
147.008
169.623
190.539
208.236
222.399
233.561
242.03
248.2
252.657
255.827
258.019
259.487
260.398
260.855
260.918
260.602
259.887
258.715
256.981
254.561
251.421
247.63
243.246
238.304
232.86
226.996
220.816
214.449
208.036
201.72
195.614
189.768
184.123
178.408
172.244
27.9582
5.2334
-20.6179
-47.814
-74.0679
-101.307
-128.257
-154.082
-179.151
-203.033
-225.66
-247.226
-267.665
-287.067
-305.494
-322.928
-339.341
-354.658
-368.756
-381.482
-392.637
-402.004
-409.41
-414.731
-417.999
-419.344
-418.655
-415.641
-409.975
-401.333
-389.397
-373.864
-354.468
-331.022
-303.443
-271.824
-236.496
-198.204
-159.632
49.4226
69.9596
92.5705
116.318
138.794
160.493
180.597
197.644
211.322
222.139
230.385
236.428
240.831
244.002
246.236
247.779
248.796
249.388
249.618
249.508
249.045
248.182
246.828
244.872
242.276
239.092
235.364
231.12
226.4
221.265
215.794
210.087
204.251
198.395
192.603
186.906
181.244
175.387
169.077
25.1495
3.50264
-21.1
-46.9453
-71.857
-97.6683
-123.161
-147.545
-171.174
-193.64
-214.879
-235.079
-254.183
-272.274
-289.417
-305.597
-320.791
-334.934
-347.915
-359.597
-369.802
-378.336
-385.048
-389.84
-392.755
-393.928
-393.273
-390.535
-385.425
-377.658
-366.953
-353.037
-335.664
-314.652
-289.9
-261.448
-229.526
-194.71
-159.381
45.6182
65.2184
86.8229
109.541
131.069
151.885
171.207
187.626
200.832
211.311
219.336
225.25
229.593
232.755
235.019
236.622
237.726
238.432
238.803
238.867
238.619
238.02
236.995
235.443
233.32
230.667
227.517
223.889
219.813
215.331
210.504
205.404
200.111
194.704
189.243
183.742
178.138
172.235
165.87
22.6013
1.98554
-21.4239
-45.9797
-69.6129
-94.0647
-118.174
-141.194
-163.46
-184.587
-204.519
-223.436
-241.286
-258.152
-274.096
-289.106
-303.166
-316.218
-328.163
-338.877
-348.203
-355.967
-362.038
-366.341
-368.929
-369.94
-369.308
-366.811
-362.196
-355.213
-345.615
-333.158
-317.619
-298.821
-276.651
-251.106
-222.332
-190.752
-158.475
42.1167
60.8191
81.458
103.188
123.805
143.77
162.337
178.146
190.895
201.044
208.849
214.632
218.909
222.053
224.334
225.985
227.16
227.958
228.448