/*--------------------------------*- C++ -*----------------------------------*\
| =========                 |                                                 |
| \\      /  F ield         | OpenFOAM: The Open Source CFD Toolbox           |
|  \\    /   O peration     | Version:  v1806                                 |
|   \\  /    A nd           | Web:      www.OpenFOAM.com                      |
|    \\/     M anipulation  |                                                 |
\*---------------------------------------------------------------------------*/
FoamFile
{
    version     2.0;
    format      ascii;
    class       volScalarField;
    location    "178";
    object      p;
}
// * * * * * * * * * * * * * * * * * * * * * * * * * * * * * * * * * * * * * //

dimensions      [0 2 -2 0 0 0 0];


internalField   nonuniform List<scalar> 
10720
(
1883.17
1910.39
1903.89
1852.74
1741.71
1574.7
1366.19
1126.31
862.745
591.265
319.585
54.3718
-198.673
-436.289
-655.028
-850.6
-1022.91
-1165.76
-1280.18
-1359.88
-1405.72
-1414.03
-1391.44
-1339.27
-1271.07
-1209.44
-1152.84
-1088
-1014.7
-934.748
-848.254
-755.415
-656.402
-550.916
-438.29
-314.455
-174.968
8.68191
250.952
1812.39
1696.38
1518.43
1278.19
978.641
626.463
248.382
-109.689
-409.031
-648.432
-816.994
-914.891
-966.766
-989.129
-989.592
-983.999
-973.874
-965.31
-960.728
-965.114
-976.431
-995.84
-1020.12
-1043.68
-1048.3
-1026.52
-990.568
-944.896
-889.808
-825.105
-751.705
-670.557
-582.249
-486.465
-382.487
-266.502
-133.077
43.392
288.066
1789.38
1817.8
1813.14
1769.75
1683.73
1555.8
1391.26
1195.89
975.575
739.458
495.117
249.1
7.43022
-225.02
-443.746
-644.418
-824.486
-979.064
-1106.64
-1202.49
-1265.98
-1293.96
-1290.06
-1257.48
-1208.07
-1159.68
-1111.95
-1054.65
-987.605
-912.785
-830.583
-741.305
-645.226
-542.124
-431.372
-308.968
-170.599
12.3172
248.377
1731.94
1644.3
1515.58
1340.62
1121.56
862.23
577.264
290.907
25.4217
-207.583
-398.173
-542.713
-649.964
-727.139
-778.819
-815.058
-840.131
-859.568
-877.135
-896.917
-919.002
-944.735
-972.148
-996.46
-1003.59
-987.285
-956.694
-915.98
-865.428
-804.88
-735.179
-657.234
-571.617
-478.053
-375.833
-261.197
-128.855
46.9254
285.263
1676.93
1701.77
1700.08
1667.06
1598.65
1492.83
1352.09
1180.54
982.718
765.572
536.537
302.095
68.5415
-158.581
-374.313
-574.24
-754.666
-911.482
-1041.94
-1142.43
-1211.2
-1245.79
-1249.11
-1224.87
-1182.81
-1137.63
-1091.31
-1036.27
-971.625
-899.082
-819.057
-731.757
-637.414
-535.788
-426.224
-304.756
-167.138
14.6414
244.58
1628.86
1555.83
1447.78
1299.05
1111.85
887.226
634.149
370.457
115.478
-116.385
-315.508
-475.467
-597.391
-685.862
-747.012
-789.215
-818.758
-840.741
-859.323
-878.27
-898.99
-922.542
-947.433
-969.335
-977.219
-964.443
-936.958
-898.858
-850.658
-792.305
-724.597
-648.426
-564.347
-472.101
-370.951
-257.17
-125.549
49.1226
281.019
1557.35
1579.44
1579.66
1553.69
1498.3
1410.93
1293.08
1147.44
976.774
786.231
581.594
368.258
151.921
-62.1175
-268.805
-463.493
-641.965
-800.073
-934.303
-1041.16
-1118.21
-1163.57
-1178.97
-1167.72
-1137.46
-1100.34
-1059.77
-1010.15
-950.188
-881.506
-804.756
-720.21
-628.154
-528.412
-420.352
-300.093
-163.517
16.5289
240.214
1516.22
1454.96
1364.68
1240.56
1085.13
897.748
684.623
459.942
238.159
30.2779
-154.945
-311.468
-438.509
-538.583
-615.734
-675.134
-721.498
-758.723
-790.317
-819.678
-848.577
-877.861
-906.422
-930.589
-941.787
-933.871
-910.75
-876.436
-831.668
-776.437
-711.492
-637.714
-555.667
-465.128
-365.362
-252.707
-122.109
50.8691
275.876
1441.16
1460.85
1462.15
1441.29
1395.74
1322.5
1222.39
1097.15
948.251
779.557
595.486
400.452
199.592
-2.10384
-199.685
-388.368
-563.614
-721.126
-856.963
-967.651
-1050.34
-1103.27
-1127.07
-1124.66
-1102.53
-1070.92
-1033.95
-987.758
-930.968
-865.082
-790.883
-708.642
-618.628
-520.66
-414.095
-295.105
-159.733
18.2383
235.247
1405.58
1353.28
1276.07
1169.6
1036.57
875.306
690.092
492.426
293.676
102.442
-73.4724
-228.124
-359.387
-467.68
-554.898
-624.08
-678.952
-723.015
-759.664
-792.115
-822.48
-851.769
-879.314
-902.177
-913.623
-908.082
-887.714
-856.023
-813.817
-761.078
-698.462
-626.805
-546.641
-457.752
-359.382
-247.929
-118.526
52.3904
269.971
1331.43
1349.02
1350.81
1333.5
1295.24
1232.97
1147.13
1039.03
909.274
760.745
596.759
420.718
236.988
49.9952
-135.723
-315.526
-484.81
-639.251
-774.688
-887.485
-974.574
-1033.98
-1065.88
-1072.66
-1059.55
-1034.87
-1002.91
-961.298
-908.726
-846.503
-775.504
-696.042
-608.4
-512.43
-407.514
-289.929
-155.925
19.5982
229.622
1300.32
1255.16
1188.45
1096.25
981.444
841.826
680.525
507.309
331.496
159.673
-1.50733
-146.731
-273.793
-382.223
-472.825
-547.503
-608.967
-659.967
-703.262
-741.474
-776.513
-809.29
-839.297
-863.979
-878.02
-876.516
-860.343
-832.401
-793.604
-744.001
-684.201
-615.021
-536.995
-449.934
-353.1
-242.974
-114.941
53.5235
263.312
1229.49
1245.17
1247.11
1232.33
1199.57
1145.84
1071.42
977.302
863.538
732.329
586.114
427.424
259.882
87.2668
-86.364
-256.624
-419.056
-569.336
-703.2
-816.904
-907.193
-971.939
-1010.71
-1025.31
-1019.88
-1001.25
-973.698
-936.055
-887.212
-828.278
-760.2
-683.338
-597.976
-503.976
-400.733
-284.625
-152.129
20.5937
223.439
1202.14
1162.74
1104.48
1023.73
923.428
801.093
659.047
505.775
349.101
194.068
46.2189
-89.7585
-211.898
-319.323
-412.026
-490.917
-557.693
-614.204
-662.56
-704.857
-742.816
-777.326
-808.095
-833.107
-848.183
-849.102
-835.798
-810.591
-774.445
-727.447
-670.114
-603.195
-527.192
-441.921
-346.635
-237.91
-111.392
54.2399
256.027
1135.43
1149.37
1151.23
1138.27
1109.69
1062.7
997.476
914.86
814.594
698.361
567.985
425.299
273.215
114.873
-46.1922
-206.009
-360.372
-505.077
-635.901
-749.061
-841.169
-909.899
-954.391
-975.928
-977.682
-965.149
-942.339
-908.96
-864.135
-808.781
-743.879
-669.836
-586.941
-495.072
-393.647
-279.168
-148.356
21.2218
216.788
1111.27
1076.63
1025.33
954.025
865.62
757.553
631.595
495.27
355.297
215.638
80.9348
-44.7412
-159.77
-263.217
-354.679
-434.53
-503.73
-563.498
-615.379
-660.991
-701.744
-738.395
-770.725
-797.035
-813.952
-817.866
-808.075
-786.257
-753.326
-709.392
-654.891
-590.52
-516.765
-433.459
-339.875
-232.703
-107.886
54.5499
248.261
1048.92
1061.28
1062.9
1051.28
1025.95
984.336
926.589
853.48
764.559
661.161
544.662
416.332
278.498
133.717
-15.0286
-164.209
-309.959
-448.306
-575.157
-686.753
-779.626
-851.286
-900.507
-928.008
-936.151
-929.276
-911.018
-881.718
-840.765
-788.918
-727.154
-655.931
-575.536
-485.856
-386.332
-273.605
-144.65
21.4569
209.691
1027.5
996.854
951.37
887.943
809.412
713.206
600.715
478.669
353.001
226.856
104.142
-11.6137
-119.174
-217.707
-306.665
-386.116
-456.514
-518.515
-573.145
-621.506
-664.633
-703.095
-736.703
-764.043
-782.387
-788.668
-781.761
-762.812
-732.669
-691.479
-639.602
-577.659
-506.104
-424.771
-332.941
-227.428
-104.479
54.4319
240.081
969.414
980.339
981.649
971.014
948.263
910.998
859.389
794.192
714.857
622.474
518.095
402.584
277.792
145.733
8.89174
-129.642
-266.43
-397.784
-519.82
-628.849
-721.422
-794.918
-847.798
-880.296
-894.115
-892.553
-878.796
-853.574
-816.524
-768.265
-709.736
-641.433
-563.641
-476.26
-378.755
-267.927
-141.021
21.2875
202.161
950.369
923.119
882.573
825.81
755.583
669.388
568.315
458.47
345.157
230.938
119.14
12.8637
-87.0057
-179.826
-265.032
-342.555
-412.546
-475.282
-531.353
-581.454
-626.271
-666.178
-700.962
-729.407
-749.234
-757.837
-753.869
-737.957
-710.804
-672.552
-623.481
-564.133
-494.924
-415.697
-325.754
-222.055
-101.171
53.885
231.513
896.345
905.979
906.934
897.036
876.348
842.661
796.157
737.598
666.393
583.476
489.666
385.522
272.507
152.21
26.6581
-101.521
-229.292
-353.305
-469.925
-575.63
-667.029
-741.422
-797.033
-833.635
-852.385
-855.687
-846.236
-824.972
-791.739
-747.045
-691.767
-626.425
-551.303
-466.307
-370.93
-262.146
-137.485
20.7164
194.216
879.37
855.033
818.716
767.656
704.499
626.831
535.529
436.165
333.542
229.794
127.811
30.3217
-62.0776
-148.94
-229.756
-304.456
-373.045
-435.529
-492.184
-543.346
-589.39
-630.462
-666.292
-695.786
-716.993
-727.665
-726.338
-713.221
-688.863
-653.403
-607.052
-550.263
-483.412
-406.34
-318.369
-216.614
-97.986
52.9136
222.587
829.143
837.615
838.204
828.872
809.867
779.152
736.942
684
619.74
544.987
460.396
366.312
263.895
154.37
39.3788
-78.8612
-197.733
-314.236
-425.033
-526.798
-616.251
-690.673
-748.111
-787.952
-810.894
-818.598
-813.24
-795.818
-766.335
-725.201
-673.209
-610.884
-538.508
-455.991
-362.858
-256.271
-134.056
19.7475
185.888
813.985
792.178
759.51
713.375
656.295
585.966
503.098
412.807
319.494
224.973
131.779
42.3451
-42.9396
-123.807
-199.865
-271.083
-337.419
-398.739
-455.09
-506.546
-553.205
-595.019
-631.64
-662.042
-684.497
-697.042
-698.193
-687.803
-666.238
-633.599
-590.022
-535.869
-471.463
-396.645
-310.762
-211.107
-94.9323
51.5321
213.331
767.276
774.709
774.931
766.041
748.433
720.229
681.666
633.517
575.233
507.547
431.013
345.819
252.896
153.181
47.9786
-60.8611
-171.103
-280.1
-384.829
-482.2
-569.089
-642.793
-701.251
-743.534
-769.944
-781.553
-780.013
-766.271
-740.426
-702.807
-654.106
-594.835
-525.269
-445.321
-354.546
-250.312
-130.74
18.3959
177.205
753.725
734.123
704.635
662.781
610.979
547.015
471.48
389.103
303.94
217.56
132.222
50.1252
-28.4993
-103.542
-174.722
-242.093
-305.613
-365.087
-420.431
-471.546
-518.312
-560.503
-597.682
-628.847
-652.424
-666.647
-670.056
-662.225
-643.332
-613.43
-572.586
-521.07
-459.146
-386.651
-302.958
-205.547
-92.0216
49.7515
203.782
710.263
716.766
716.636
708.095
691.665
665.61
630.178
586.16
533.047
471.512
402.036
324.703
240.265
149.443
53.2454
-46.7951
-148.771
-250.388
-348.938
-441.587
-525.403
-597.746
-656.495
-700.481
-729.663
-744.672
-746.643
-736.389
-714.058
-679.893
-634.476
-578.289
-511.594
-434.301
-346.003
-244.279
-127.552
16.6792
168.206
698.129
680.467
653.764
615.666
568.472
510.077
440.974
365.538
287.545
208.37
130.061
54.6195
-17.8374
-87.3207
-153.653
-216.974
-277.291
-334.402
-388.164
-438.365
-484.735
-526.909
-564.359
-596.088
-620.609
-636.299
-641.755
-636.329
-620.018
-592.806
-554.684
-505.83
-446.443
-376.351
-294.958
-199.945
-89.2624
47.5972
193.976
657.666
663.33
662.872
654.618
639.205
615.005
582.288
541.863
493.257
437.104
373.839
303.469
226.611
143.81
55.8557
-35.9939
-130.136
-224.596
-316.981
-404.721
-485.078
-555.522
-613.924
-658.939
-690.238
-708.128
-713.269
-706.285
-687.312
-656.516
-614.359
-561.272
-497.497
-422.944
-337.238
-238.181
-124.497
14.6145
158.934
646.79
630.832
606.59
571.807
528.67
475.177
411.747
342.444
270.79
198.024
126.009
56.5944
-10.1898
-74.4403
-136.06
-195.282
-252.169
-306.564
-358.307
-407.127
-452.664
-494.448
-531.886
-563.968
-589.253
-606.205
-613.491
-610.293
-596.44
-571.833
-536.391
-490.197
-433.384
-365.765
-286.778
-194.312
-86.663
45.0879
183.954
609.084
613.997
613.241
605.239
590.71
568.128
537.792
500.518
455.866
404.45
346.664
282.471
212.388
136.825
56.3922
-27.8835
-114.666
-202.264
-288.586
-371.318
-447.944
-516.06
-573.565
-619.002
-651.815
-672.07
-680.02
-676.06
-660.27
-632.735
-593.794
-543.811
-482.998
-411.262
-328.261
-232.029
-121.582
12.229
149.432
599.337
584.889
562.821
530.983
491.437
442.29
383.893
320.039
254.024
186.977
120.612
56.6511
-4.93133
-64.2923
-121.411
-176.585
-229.949
-281.394
-330.793
-377.855
-422.177
-463.229
-500.367
-532.567
-558.408
-576.411
-585.305
-584.152
-572.626
-550.536
-517.726
-474.188
-419.981
-354.905
-278.43
-188.659
-84.2274
42.254
173.758
564.174
568.416
567.389
559.612
545.862
524.711
496.481
461.986
420.829
373.601
320.67
261.978
197.958
128.919
55.3271
-21.9798
-101.892
-182.973
-263.4
-341.117
-413.828
-479.279
-535.424
-580.745
-614.524
-636.638
-647.027
-645.821
-633.02
-608.617
-572.83
-525.939
-468.12
-399.273
-319.088
-225.833
-118.808
9.55059
139.743
555.433
542.331
522.198
492.986
456.636
411.362
357.458
298.468
237.494
175.569
114.292
55.2728
-1.54857
-56.3754
-109.233
-160.484
-210.319
-258.695
-305.524
-350.54
-393.331
-433.344
-469.912
-502
-528.189
-547.029
-557.307
-558.006
-548.66
-528.982
-498.742
-457.84
-406.263
-343.79
-269.927
-182.997
-81.9565
39.1254
163.431
522.62
526.263
524.995
517.423
504.368
484.5
458.147
426.124
388.075
344.571
295.964
242.178
183.588
120.425
53.0478
-17.8622
-91.3927
-166.323
-241.078
-313.839
-382.537
-445.071
-499.476
-544.22
-578.473
-601.967
-614.416
-615.682
-605.654
-584.237
-551.521
-507.697
-452.892
-386.997
-309.734
-219.601
-116.176
6.61289
129.921
514.776
502.875
484.474
457.616
424.127
382.321
332.449
277.828
221.379
164.066
107.382
52.8467
0.372733
-50.2634
-99.1261
-146.619
-192.993
-238.26
-282.384
-325.147
-366.158
-404.868
-440.61
-472.353
-498.675
-518.14
-529.58
-531.933
-524.609
-507.228
-479.483
-441.188
-392.255
-332.441
-261.289
-177.335
-79.8505
35.7391
153.025
484.139
487.247
485.769
478.389
465.969
447.256
422.588
392.781
357.514
317.338
272.594
223.2
169.485
111.625
49.8904
-15.1632
-82.7871
-151.949
-221.295
-289.224
-353.878
-413.318
-465.686
-509.458
-543.748
-568.178
-582.311
-585.753
-578.27
-559.672
-529.929
-489.129
-437.346
-374.457
-300.215
-213.344
-113.682
3.4521
120.017
477.098
466.272
449.429
424.687
393.77
355.087
308.851
258.171
205.808
152.662
100.14
49.6778
1.17793
-45.5947
-90.7327
-134.666
-177.691
-219.875
-261.237
-301.611
-340.652
-377.844
-412.538
-443.715
-469.953
-489.835
-502.216
-506.022
-500.554
-485.343
-460.005
-424.275
-377.99
-320.883
-252.529
-171.683
-77.9035
32.1315
142.589
448.479
451.115
449.455
442.258
430.421
412.757
389.616
361.808
329.042
291.854
250.579
205.131
155.806
102.737
46.1237
-13.5782
-75.7534
-139.536
-203.757
-267.013
-327.652
-383.894
-433.996
-476.474
-510.416
-535.376
-550.825
-556.143
-550.966
-535.007
-508.119
-470.288
-421.521
-361.682
-290.55
-207.071
-111.32
0.107068
110.085
442.158
432.299
416.859
394.028
365.431
329.573
286.631
239.525
190.865
141.502
92.7598
46.0091
1.14862
-42.0674
-83.7462
-124.335
-164.157
-203.331
-241.928
-279.846
-316.789
-352.289
-385.737
-416.145
-442.101
-462.193
-475.3
-480.358
-476.573
-463.394
-440.367
-407.149
-363.505
-309.142
-243.67
-166.048
-76.1084
28.3434
132.174
415.417
417.631
415.814
408.799
397.502
380.8
359.052
333.057
302.553
268.064
229.913
188.02
142.653
93.9143
41.953
-12.8613
-70.0197
-128.794
-188.181
-246.96
-303.658
-356.655
-404.328
-445.25
-478.522
-503.652
-520.064
-526.961
-523.843
-510.33
-486.165
-451.228
-405.459
-348.701
-280.76
-200.787
-109.081
-3.37904
100.181
409.741
400.753
386.578
365.479
338.988
305.693
265.747
221.893
176.603
130.685
85.3931
42.0298
0.49937
-39.4446
-77.9171
-115.372
-152.158
-188.427
-224.306
-259.748
-294.515
-328.199
-360.24
-389.7
-415.183
-435.29
-448.917
-455.026
-452.747
-441.455
-420.632
-389.861
-348.839
-297.25
-234.731
-160.44
-74.4541
24.4188
121.832
384.748
386.586
384.637
377.804
367.013
351.198
330.729
306.387
277.94
245.896
210.574
171.893
130.106
85.2892
37.5527
-12.7955
-65.342
-119.471
-174.325
-228.84
-281.708
-331.46
-376.598
-415.763
-448.091
-473.081
-490.124
-498.308
-497
-485.731
-464.142
-432.011
-389.207
-335.55
-270.866
-194.502
-106.951
-6.961
90.3625
379.651
371.447
358.418
338.893
314.319
283.362
246.151
205.269
163.06
120.294
78.1563
37.894
-0.582566
-37.5125
-73.0179
-107.553
-141.477
-174.977
-208.219
-241.207
-273.765
-305.548
-336.06
-364.417
-389.254
-409.192
-423.145
-430.108
-429.155
-419.6
-400.865
-372.466
-334.038
-285.237
-225.732
-154.864
-72.9279
20.3997
111.617
356.285
357.793
355.733
349.085
338.768
323.778
304.489
281.664
255.094
225.278
192.523
156.758
118.216
76.9592
33.0656
-13.2066
-61.5172
-111.35
-161.968
-212.444
-261.617
-308.164
-350.709
-387.974
-419.136
-443.714
-461.086
-470.278
-470.535
-461.301
-442.13
-412.703
-372.817
-322.264
-260.891
-188.22
-104.916
-10.597
80.684
351.71
344.218
332.225
314.138
291.314
262.494
227.791
189.636
150.254
110.378
71.1381
33.7238
-1.94807
-36.1065
-68.8709
-100.692
-131.935
-162.812
-193.521
-224.109
-254.461
-284.298
-313.192
-340.319
-364.358
-383.958
-398.054
-405.684
-405.88
-397.907
-381.135
-355.023
-319.147
-273.141
-216.697
-149.325
-71.5119
16.3319
101.581
329.862
331.078
328.931
322.468
312.601
298.383
280.187
258.758
233.911
206.13
175.716
142.603
107.011
68.9923
28.6003
-13.9487
-58.374
-104.236
-150.903
-197.569
-243.208
-286.623
-326.56
-361.827
-391.65
-415.59
-433.025
-442.962
-444.542
-437.132
-420.211
-393.373
-356.344
-308.887
-250.86
-181.949
-102.957
-14.2387
71.2028
325.757
318.91
307.863
291.09
269.867
243.009
210.612
174.968
138.188
100.973
64.401
29.6076
-3.48226
-35.0858
-65.3197
-94.6237
-123.364
-151.77
-180.065
-208.335
-236.517
-264.395
-291.61
-317.411
-340.524
-359.638
-373.71
-381.826
-382.998
-376.451
-361.513
-337.594
-304.218
-260.997
-207.648
-143.829
-70.1877
12.2602
91.7761
305.328
306.285
304.074
297.794
288.357
274.864
257.686
237.549
214.29
188.376
160.103
129.411
96.5077
61.4373
24.2394
-14.9055
-55.7646
-97.9621
-140.958
-184.044
-226.319
-266.702
-304.05
-337.259
-365.616
-388.731
-405.996
-416.433
-419.104
-413.311
-398.466
-374.094
-339.846
-295.457
-240.8
-175.691
-101.057
-17.841
61.9722
301.648
295.384
285.2
269.633
249.88
224.828
194.559
161.232
126.856
92.1005
57.9919
25.6161
-5.09178
-34.3366
-62.2322
-89.208
-115.623
-141.715
-167.725
-193.775
-219.848
-245.784
-271.292
-295.69
-317.774
-336.268
-350.168
-358.602
-360.582
-355.307
-342.071
-320.242
-289.305
-248.848
-198.608
-138.379
-68.9348
8.22882
82.2506
282.545
283.275
281.017
274.924
265.897
253.087
236.86
217.924
196.132
171.938
145.628
117.152
86.7066
54.328
20.0479
-15.9822
-53.5671
-92.3878
-131.974
-171.712
-210.8
-248.269
-283.075
-314.205
-341.008
-363.147
-380.048
-390.762
-394.303
-389.922
-376.982
-354.937
-323.382
-282.024
-230.733
-169.453
-99.19
-21.3582
53.044
279.248
273.515
264.118
249.658
231.26
207.876
179.576
148.397
116.247
83.7703
51.9438
21.8043
-6.70416
-33.7736
-59.5108
-84.3301
-108.586
-132.518
-156.38
-180.318
-204.36
-228.394
-252.191
-275.146
-296.116
-313.88
-327.476
-336.077
-338.705
-334.549
-322.879
-303.032
-274.458
-236.731
-189.602
-132.977
-67.7322
4.28102
73.0515
261.387
261.918
259.628
253.723
245.091
232.927
217.593
199.776
179.345
156.739
132.236
105.794
77.598
47.6845
16.072
-17.1055
-51.6848
-87.3909
-123.819
-160.431
-196.512
-231.194
-263.53
-292.588
-317.782
-338.838
-355.211
-366.007
-370.212
-367.047
-355.835
-335.978
-307.016
-268.628
-220.692
-163.238
-97.338
-24.7524
44.4661
258.433
253.184
244.509
231.069
213.922
192.081
165.608
136.425
106.344
75.9833
46.2756
18.21
-8.2612
-33.3181
-57.0626
-79.8891
-102.143
-124.066
-145.917
-167.865
-189.964
-212.153
-234.261
-255.749
-275.548
-292.495
-305.673
-314.301
-317.431
-314.247
-304.008
-286.028
-259.735
-224.688
-180.654
-127.626
-66.5561
0.454448
64.2216
241.737
242.094
239.786
234.072
225.82
214.269
199.776
183.005
163.839
142.704
119.87
95.297
69.1684
41.5123
12.3468
-18.2153
-50.0335
-82.8709
-116.374
-150.071
-183.329
-215.362
-245.316
-272.335
-295.897
-315.787
-331.504
-342.211
-346.896
-344.763
-335.104
-317.287
-290.809
-255.32
-210.699
-157.051
-95.4811
-27.9799
36.2804
239.093
234.287
226.273
213.775
197.786
177.376
152.602
125.278
97.1237
68.7348
40.9982
14.8594
-9.72298
-32.9155
-54.8165
-75.8023
-96.2061
-116.266
-136.243
-156.32
-176.578
-196.995
-217.449
-237.469
-256.061
-272.122
-284.787
-293.321
-296.817
-294.466
-285.525
-269.296
-245.19
-212.762
-171.785
-122.329
-65.3868
-3.20782
55.8003
223.489
223.695
221.383
215.86
207.976
197.007
183.307
167.516
149.531
129.762
108.471
85.6241
61.3957
35.8158
8.89392
-19.2666
-48.5471
-78.7415
-109.54
-140.526
-171.136
-200.666
-228.336
-253.372
-275.306
-293.977
-308.94
-319.413
-324.413
-323.137
-314.864
-298.937
-274.821
-242.147
-200.784
-150.896
-93.5914
-31.0069
28.5273
221.125
216.722
209.316
197.689
182.774
163.697
140.506
114.917
88.5624
62.0135
36.116
11.7698
-11.0588
-32.5252
-52.72
-72.0042
-90.6962
-109.032
-127.268
-145.596
-164.118
-182.845
-201.697
-220.268
-237.636
-252.764
-264.84
-273.176
-276.917
-275.268
-267.492
-252.896
-230.88
-200.993
-163.023
-117.087
-64.1977
-6.6747
47.8216
206.545
206.619
204.315
198.985
191.455
181.042
168.093
153.222
136.342
117.845
97.9844
76.733
54.2578
30.5863
5.72842
-20.2259
-47.1725
-74.9305
-103.23
-131.699
-159.836
-187.005
-212.503
-235.62
-255.949
-273.377
-287.513
-297.637
-302.805
-302.227
-295.18
-280.994
-259.114
-229.152
-190.976
-144.777
-91.6551
-33.7976
21.2414
204.434
200.398
193.553
182.734
168.816
150.98
129.269
105.303
80.6323
55.8051
31.6255
8.95151
-12.2446
-32.1095
-50.7267
-68.4386
-85.551
-102.291
-118.913
-135.615
-152.509
-169.634
-186.949
-204.105
-220.249
-234.413
-245.843
-253.894
-257.772
-256.704
-249.97
-236.886
-216.854
-189.423
-154.387
-111.902
-62.9728
-9.91309
40.313
190.816
190.776
188.49
183.352
176.166
166.283
154.044
140.041
124.196
106.885
88.3549
68.5806
47.7245
25.8136
2.85498
-21.0684
-45.8676
-71.3817
-97.3699
-123.504
-149.336
-174.288
-197.726
-219.007
-237.771
-253.952
-267.215
-276.896
-282.11
-282.087
-276.113
-263.521
-243.745
-216.385
-181.3
-138.7
-89.6521
-36.3259
14.449
188.932
185.233
178.904
168.835
155.846
139.168
118.842
96.3964
73.3044
50.0902
27.52
6.40782
-13.2682
-31.6446
-48.8011
-65.0609
-80.7154
-95.9839
-111.115
-126.305
-141.681
-157.297
-173.149
-188.935
-203.871
-217.059
-227.801
-235.498
-239.418
-238.822
-233.012
-221.322
-203.163
-178.091
-145.903
-106.776
-61.6917
-12.8969
33.2983
176.216
176.079
173.819
168.874
162.02
152.645
141.08
127.895
113.02
96.8195
79.5266
61.1244
41.7668
21.4818
0.274074
-21.7798
-44.5998
-68.0445
-91.8985
-115.87
-139.555
-162.435
-183.931
-203.463
-220.717
-235.666
-248.028
-257.197
-262.355
-262.759
-257.718
-246.576
-228.767
-203.886
-171.782
-132.673
-87.5671
-38.5677
8.1705
174.538
171.148
165.294
155.922
143.8
128.205
109.177
88.1588
66.5489
44.8485
23.7862
4.13544
-14.123
-31.1162
-46.9183
-61.8357
-76.145
-90.0574
-103.813
-117.606
-131.568
-145.773
-160.238
-174.71
-188.469
-200.682
-210.71
-218.001
-221.887
-221.664
-216.666
-206.254
-189.854
-167.031
-137.591
-101.713
-60.3377
-15.6025
26.7955
162.669
162.448
160.224
155.471
148.938
140.049
129.125
116.713
102.751
87.5883
71.4497
54.3223
36.354
17.5713
-2.01943
-22.349
-43.3449
-64.8811
-86.7656
-108.735
-130.427
-151.372
-171.045
-188.922
-204.729
-218.476
-229.93
-238.537
-243.556
-244.277
-240.04
-230.21
-214.231
-191.697
-162.45
-126.699
-85.3891
-40.5039
2.42287
161.176
158.07
152.656
143.932
132.619
118.038
100.228
80.5528
60.336
40.0574
20.4105
2.12783
-14.8069
-30.5129
-45.0594
-58.7363
-71.806
-84.4692
-96.958
-109.462
-122.116
-135.005
-148.166
-161.385
-174.005
-185.258
-194.562
-201.411
-205.197
-205.26
-200.972
-191.725
-176.969
-156.281
-129.471
-96.7172
-58.9002
-18.014
20.8156
150.102
149.811
147.629
143.066
136.845
128.42
118.106
106.424
93.3224
79.1338
64.0738
48.1336
31.4547
14.0631
-4.0343
-22.7719
-42.0861
-61.8631
-81.9281
-102.046
-121.889
-141.033
-159
-175.318
-189.752
-202.339
-212.89
-220.908
-225.721
-226.666
-223.116
-214.466
-200.179
-179.854
-153.328
-120.79
-83.1077
-42.1213
-2.78703
148.777
145.931
140.925
132.805
122.248
108.619
91.9537
73.5403
54.6349
35.6947
17.3781
0.377291
-15.3202
-29.8278
-43.2098
-55.7414
-67.6682
-79.183
-90.5067
-101.824
-113.27
-124.938
-136.879
-148.914
-160.445
-170.763
-179.343
-185.725
-189.359
-189.635
-185.964
-177.775
-164.546
-145.871
-121.564
-91.7945
-57.3688
-20.1184
15.3622
138.449
138.099
135.965
131.59
125.671
117.692
107.958
96.9684
84.6762
71.4016
57.3501
42.5166
27.0355
10.934
-5.78134
-23.0494
-40.8112
-58.9645
-77.351
-95.7578
-113.89
-131.359
-147.738
-162.595
-175.732
-187.21
-196.879
-204.294
-208.852
-209.94
-206.973
-199.382
-186.65
-168.392
-144.437
-114.953
-80.7208
-43.414
-7.45647
137.275
134.669
130.039
122.484
112.634
99.8977
84.3101
67.0865
49.4157
31.7358
14.6696
-1.12853
-15.6704
-29.0616
-41.3643
-52.8358
-63.7103
-74.17
-84.4242
-94.652
-104.986
-115.525
-126.33
-137.252
-147.747
-157.166
-165.034
-170.936
-174.38
-174.806
-171.668
-164.435
-152.616
-135.828
-113.888
-86.9479
-55.7391
-21.9089
10.4363
127.647
127.249
125.168
120.979
115.352
107.801
98.6189
88.2846
76.7561
64.3401
51.2335
37.4319
23.0653
8.16036
-7.27503
-23.1845
-39.5135
-56.1683
-73.0056
-89.8326
-106.382
-122.301
-137.202
-150.697
-162.618
-173.043
-181.861
-188.672
-192.943
-194.109
-191.633
-184.984
-173.677
-157.341
-135.801
-109.199
-78.2274
-44.3788
-11.5898
126.611
124.224
119.944
112.915
103.728
91.8308
77.2571
61.1552
44.6485
28.1554
12.2656
-2.40455
-15.8652
-28.2166
-39.5177
-50.0105
-59.9162
-69.4069
-78.681
-87.9101
-97.2234
-106.721
-116.474
-126.356
-135.873
-144.435
-151.611
-157.032
-160.259
-160.782
-158.101
-151.729
-141.206
-126.176
-106.46
-82.1862
-54.0069
-23.3848
6.03147
117.64
117.202
115.178
111.172
105.828
98.6854
90.0301
80.3166
69.5093
57.9009
45.6792
32.8419
19.5134
5.71983
-8.52997
-23.1833
-38.1887
-53.4608
-68.869
-84.2386
-99.3256
-113.811
-127.343
-139.573
-150.358
-159.793
-167.796
-174.016
-177.977
-179.171
-177.106
-171.295
-161.284
-146.724
-127.438
-103.539
-75.6289
-45.0198
-15.1965
116.727
114.542
110.586
104.05
95.4847
84.3755
70.7571
55.7121
40.3033
24.9291
10.1461
-3.46502
-15.9149
-27.2971
-37.6688
-47.2581
-56.2722
-64.8741
-73.251
-81.5662
-89.9448
-98.4869
-107.268
-116.183
-124.785
-132.534
-139.048
-143.994
-146.987
-147.565
-145.276
-139.673
-130.337
-116.934
-99.2927
-77.5166
-52.1757
-24.5475
2.1365
108.372
107.903
105.939
102.113
97.0417
90.2915
82.1374
73.0125
62.8867
52.0382
40.6456
28.7094
16.3481
3.58789
-9.56311
-23.0534
-36.8363
-50.8325
-64.9232
-78.9482
-92.6875
-105.849
-118.117
-129.176
-138.906
-147.416
-154.649
-160.296
-163.938
-165.12
-163.397
-158.326
-149.49
-136.561
-119.365
-97.985
-72.9337
-45.3446
-18.2911
107.57
105.572
101.917
95.8409
87.8588
77.491
64.773
50.7253
36.3521
22.032
8.2909
-4.32614
-15.8302
-26.31
-35.8196
-44.5745
-52.7692
-60.5564
-68.1135
-75.594
-83.1192
-90.7862
-98.6737
-106.695
-114.444
-121.431
-127.314
-131.801
-134.551
-135.151
-133.195
-128.28
-120.023
-108.118
-92.4001
-72.948
-50.2504
-25.407
-1.26519
99.7931
99.2997
97.3982
93.7497
88.9415
82.5669
74.8902
66.3239
56.8415
46.708
36.0933
24.9998
13.5404
1.74006
-10.3913
-22.8055
-35.4585
-48.2778
-61.1539
-73.9404
-86.4377
-98.3805
-109.482
-119.461
-128.218
-135.869
-142.379
-147.478
-150.801
-151.942
-150.502
-146.083
-138.307
-126.868
-111.598
-92.5488
-70.1512
-45.3671
-20.8942
99.091
97.2644
93.8891
88.2439
80.8094
71.1397
59.2702
46.1633
32.7671
19.4405
6.67947
-5.00514
-15.6245
-25.2635
-33.9741
-41.9587
-49.4002
-56.4424
-63.2509
-69.9709
-76.718
-83.5861
-90.6557
-97.8535
-104.813
-111.089
-116.379
-120.426
-122.931
-123.528
-121.856
-117.553
-110.274
-99.7397
-85.7928
-68.4894
-48.2394
-25.9747
-4.19301
91.8563
91.3447
89.5079
86.0325
81.4785
75.4633
68.2416
60.2047
51.3302
41.8699
31.9854
21.6799
11.0611
0.154126
-11.0316
-22.4497
-34.0592
-45.7924
-57.5493
-69.1964
-80.5508
-91.3728
-101.403
-110.389
-118.25
-125.107
-130.944
-135.527
-138.537
-139.616
-138.41
-134.565
-127.74
-117.655
-104.147
-87.243
-67.2945
-45.1041
-23.0291
91.2443
89.5758
86.4605
81.2182
74.2979
65.2847
54.2153
41.9962
29.5211
17.1307
5.29172
-5.51803
-15.3107
-24.167
-32.1373
-39.4118
-46.162
-52.5226
-58.6486
-64.6769
-70.7161
-76.8575
-83.1803
-89.6227
-95.854
-101.473
-106.21
-109.841
-112.106
-112.682
-111.249
-107.489
-101.092
-91.8049
-79.4796
-64.1498
-46.1533
-26.2667
-6.67158
84.5174
83.993
82.2225
78.9159
74.6066
68.9355
62.1469
54.6118
46.3116
37.4852
28.2855
18.7173
8.88278
-1.19347
-11.5013
-21.9975
-32.6431
-43.3748
-54.1011
-64.6999
-75.0052
-84.7982
-93.846
-101.922
-108.962
-115.09
-120.306
-124.406
-127.115
-128.118
-127.105
-123.764
-117.789
-108.927
-97.0222
-82.08
-64.3788
-44.5766
-24.7227
83.9866
82.4638
79.5901
74.7251
68.2874
59.8923
49.5767
38.195
26.5885
15.0796
4.10774
-5.8822
-14.9023
-23.0304
-30.3153
-36.9355
-43.0515
-48.7896
-54.295
-59.6949
-65.0922
-70.5739
-76.2165
-81.9698
-87.5341
-92.5473
-96.7723
-100.014
-102.047
-102.589
-101.361
-98.0802
-92.475
-84.3166
-73.4664
-59.939
-44.0056
-26.3032
-8.72736
77.735
77.2025
75.4992
72.3571
68.2834
62.9412
56.5647
49.5051
41.7472
33.5175
24.9605
16.0822
6.97923
-2.32417
-11.8179
-21.4605
-31.2154
-41.0241
-50.8025
-60.4383
-69.7807
-78.631
-86.78
-94.0245
-100.316
-105.779
-110.424
-114.077
-116.5
-117.42
-116.566
-113.665
-108.447
-100.685
-90.2306
-77.0715
-61.4209
-43.8078
-26.0062
77.2772
75.8886
73.2397
68.7279
62.7434
54.9297
45.3249
34.7324
23.9445
13.2657
3.1081
-6.11367
-14.4132
-21.8643
-28.515
-34.5326
-40.0675
-45.238
-50.1791
-55.0095
-59.8254
-64.7097
-69.7359
-74.8619
-79.8178
-84.2771
-88.0314
-90.912
-92.7258
-93.2265
-92.1709
-89.3139
-84.4158
-77.2732
-67.7575
-55.8661
-41.8114
-26.1059
-10.3895
71.4705
70.9341
69.2985
66.3161
62.469
57.441
51.4563
44.8472
37.6014
29.9333
21.9793
13.7462
5.32563
-3.25905
-11.9974
-20.8502
-29.783
-38.7415
-47.648
-56.4003
-64.8602
-72.8488
-80.1772
-86.665
-92.2754
-97.1325
-101.257
-104.499
-106.656
-107.489
-106.767
-104.25
-99.7041
-92.9254
-83.7762
-72.228
-58.4388
-42.8238
-26.9113
71.0784
69.8135
67.3735
63.1923
57.6332
50.3665
41.4312
31.583
21.5656
11.6676
2.27429
-6.22843
-13.8558
-20.6783
-26.7431
-32.2066
-37.2097
-41.863
-46.292
-50.6071
-54.8981
-59.2428
-63.7114
-68.2688
-72.672
-76.6273
-79.9518
-82.5013
-84.1097
-84.5645
-83.6559
-81.1716
-76.903
-70.6702
-62.3546
-51.94
-39.5866
-25.6989
-11.6898
65.6878
65.1511
63.5831
60.7557
57.1261
52.398
46.7857
40.6032
33.8406
26.7007
19.3121
11.6826
3.89812
-4.01821
-12.056
-20.178
-28.3523
-36.5279
-44.6337
-52.5756
-60.2286
-67.4304
-74.0115
-79.8124
-84.806
-89.1145
-92.7666
-95.6347
-97.5444
-98.2922
-97.6782
-95.4972
-91.5448
-85.6416
-77.6598
-67.5595
-55.451
-41.6515
-27.472
65.3546
64.2038
61.958
58.086
52.9263
46.1743
37.8694
28.7216
19.4296
10.2651
1.58876
-6.24183
-13.2429
-19.4825
-25.0061
-29.9609
-34.478
-38.6607
-42.6256
-46.4753
-50.293
-54.1518
-58.1179
-62.1619
-66.0649
-69.5638