/*--------------------------------*- C++ -*----------------------------------*\
| =========                 |                                                 |
| \\      /  F ield         | OpenFOAM: The Open Source CFD Toolbox           |
|  \\    /   O peration     | Version:  v1806                                 |
|   \\  /    A nd           | Web:      www.OpenFOAM.com                      |
|    \\/     M anipulation  |                                                 |
\*---------------------------------------------------------------------------*/
FoamFile
{
    version     2.0;
    format      ascii;
    class       volScalarField;
    location    "290";
    object      p;
}
// * * * * * * * * * * * * * * * * * * * * * * * * * * * * * * * * * * * * * //

dimensions      [0 2 -2 0 0 0 0];


internalField   nonuniform List<scalar> 
10720
(
-1669.07
-1106.49
-475.718
117.674
641.196
1089.82
1441.34
1695.56
1855.84
1925.97
1934.07
1891.25
1793.67
1660.04
1503.99
1332.26
1151.21
969.585
793.112
628.939
481.16
355.991
253.911
176.126
116.041
60.3544
8.75154
-31.3501
-59.8858
-78.104
-86.4111
-85.2617
-75.0774
-56.0888
-28.4335
10.0466
61.9347
148.234
287.025
-2270.56
-2841.38
-3537.55
-4250.03
-4903.62
-5494.24
-5949.91
-6193.26
-6214.98
-6100.66
-5867.15
-5541.75
-5195.51
-4860.31
-4536.13
-4231.65
-3938.71
-3659.45
-3399.34
-3171.47
-2979.55
-2822.03
-2688.81
-2568.19
-2436.2
-2281.74
-2118.38
-1951.53
-1780.67
-1605.21
-1426.19
-1244.42
-1060.21
-872.566
-680.755
-479.448
-271.011
-26.7326
172.934
-634.965
-249.936
142.27
530.787
890.97
1212.39
1479.47
1683.52
1820.65
1889.59
1901.88
1863.49
1778.28
1659.54
1517.35
1358.12
1188.13
1014.99
844.756
683.824
536.9
409.396
302.883
218.304
150.664
89.7185
34.6463
-8.82236
-40.4857
-61.5626
-72.4255
-73.5311
-65.343
-48.0931
-21.8737
15.49
66.5252
152.437
285.26
-1025.74
-1453.41
-1931.7
-2438.08
-2946.8
-3439.23
-3886.27
-4237.89
-4454.88
-4559.38
-4584.23
-4552.78
-4484.02
-4377.82
-4225.26
-4034.74
-3813.54
-3578.35
-3345.85
-3134.46
-2951.41
-2797.35
-2664.34
-2542.03
-2409.9
-2258.03
-2097.57
-1933.47
-1765.33
-1592.54
-1415.98
-1236.38
-1053.98
-867.823
-677.183
-476.774
-269.04
-24.7845
170.246
-440.401
-81.7094
279.881
628.135
945.488
1226.9
1461.29
1642
1766.04
1833.23
1850.31
1820.82
1748.48
1642.32
1510.83
1360.76
1198.48
1031.06
864.876
706.118
559.919
431.321
322.648
234.711
163.832
101.719
46.3881
2.05465
-30.6443
-52.7388
-64.6316
-66.7278
-59.4734
-43.0681
-17.5525
19.2589
69.9077
155.137
283.069
-792.837
-1167.35
-1581.09
-2040.79
-2513.39
-2977.57
-3408.36
-3762.23
-4011.84
-4166.19
-4239.18
-4241.25
-4186.57
-4087.59
-3952.5
-3790.79
-3609.2
-3416.88
-3224.12
-3043.44
-2881.62
-2740.62
-2615.48
-2498.1
-2372.08
-2227.84
-2073.51
-1914.09
-1749.7
-1580.01
-1406
-1228.51
-1047.84
-863.1
-673.587
-474.083
-267.074
-23.3198
170.53
-148.706
138.947
431.372
718.043
981.732
1220.26
1423.14
1583.3
1697.1
1763.39
1785.36
1764.78
1704.83
1612.06
1493.5
1355.49
1204.02
1045.58
886.433
732.56
589.214
461.226
351.382
260.629
186.322
121.817
64.7278
18.3052
-16.4607
-40.4519
-54.1508
-57.9035
-52.1202
-36.9771
-12.4856
23.5237
73.5453
157.69
280.91
-434.382
-741.794
-1089.97
-1475.29
-1875.57
-2278.75
-2663.55
-3001.6
-3275.39
-3483.94
-3626.7
-3705.08
-3725.45
-3697
-3627.99
-3525.55
-3396.91
-3250.26
-3095.2
-2942.55
-2800.18
-2671.49
-2554.04
-2441.59
-2321.78
-2185.96
-2039.32
-1886.46
-1727.73
-1562.85
-1392.77
-1218.41
-1040.22
-857.44
-669.471
-471.233
-265.25
-22.558
171.479
-15.0902
239.581
498.512
750.391
980.996
1190.82
1370.91
1515.13
1620.46
1685.68
1711.97
1699.77
1651.64
1572.1
1466.7
1341.05
1200.7
1051.66
899.967
751.419
611.363
484.544
374.088
281.216
204.146
137.718
79.4548
31.6945
-4.47977
-29.8235
-44.8339
-49.8276
-45.1781
-31.0478
-7.41873
27.8722
77.2553
160.191
278.548
-268.915
-539.358
-845.745
-1188.57
-1546.85
-1913.88
-2274.01
-2603.75
-2885.56
-3108.92
-3272.52
-3376.84
-3427.73
-3432.74
-3398.12
-3328.86
-3231.35
-3113.01
-2982.62
-2849.65
-2721.83
-2602.93
-2491.86
-2383.68
-2269.04
-2140.52
-2000.96
-1854.41
-1701.43
-1541.77
-1376.25
-1205.75
-1030.74
-850.527
-664.595
-468.055
-263.465
-22.3462
171.529
91.0444
313.063
540.177
761.606
964.365
1150.4
1311.58
1442.41
1540.34
1604.24
1633.91
1629.04
1591.53
1524.43
1431.97
1318.95
1190.35
1051.63
908.457
766.45
630.869
506.396
396.397
302.396
223.335
155.289
95.9041
46.7893
9.06383
-17.8237
-34.3508
-40.8005
-37.5016
-24.5777
-1.9741
32.455
81.0616
162.527
275.9
-130.61
-366.533
-636.376
-939.455
-1257.37
-1586.9
-1914.83
-2220.28
-2488.3
-2711.67
-2888.88
-3018.78
-3102.7
-3143.9
-3146.08
-3112.93
-3049.79
-2963.12
-2860.52
-2750.25
-2639.51
-2532.48
-2429.29
-2326.48
-2217.27
-2095.48
-1962.42
-1821.62
-1673.88
-1519.09
-1357.99
-1191.41
-1019.78
-842.486
-659
-464.585
-261.794
-22.8313
170.389
155.288
353.67
557.179
755.244
936.229
1103.23
1248.86
1368.24
1459.71
1521.91
1553.9
1555.24
1527.02
1471.26
1391.11
1290.46
1173.66
1045.57
911.468
776.662
646.272
524.912
416.111
321.702
241.241
171.864
111.491
61.1953
22.0758
-6.22
-24.1415
-31.9402
-29.9023
-18.1162
3.50094
37.0679
84.8458
164.627
272.983
-43.2364
-253.888
-495.685
-768.578
-1055.36
-1355.04
-1657.01
-1942.75
-2199.38
-2420.9
-2603.02
-2743.53
-2842.61
-2902.92
-2927.59
-2919.45
-2882.46
-2821.45
-2742.46
-2652.25
-2557.21
-2461.56
-2366.31
-2269.31
-2165.69
-2050.43
-1923.79
-1788.65
-1646.01
-1495.9
-1339.03
-1176.24
-1007.99
-833.689
-652.847
-460.889
-260.319
-24.1759
168.014
198.567
376.813
560.345
738.876
901.78
1052.85
1185.28
1294.73
1380.32
1440.52
1473.97
1480.32
1460.05
1414.39
1345.6
1256.77
1151.54
1034.22
909.569
782.535
658.039
540.592
433.804
339.779
258.61
188.307
127.156
75.8652
35.4777
5.83001
-13.4669
-22.6323
-21.9035
-11.32
9.23465
41.8454
88.6708
166.517
269.826
19.9207
-169.154
-387.146
-633.953
-893.676
-1166.69
-1444.11
-1709
-1950.07
-2162.23
-2341.51
-2486.05
-2595.74
-2671.7
-2715.73
-2729.48
-2715.56
-2677.54
-2620.16
-2548.97
-2469.52
-2385.85
-2299.51
-2209.35
-2112.03
-2003.62
-1883.74
-1754.61
-1617.35
-1472.11
-1319.57
-1160.59
-995.706
-824.434
-646.352
-457.072
-259.109
-26.4481
164.283
225.014
386.708
553.643
715.879
863.673
1001.22
1122.3
1223.1
1303.29
1361.2
1395.45
1405.74
1392.13
1355.3
1296.82
1219.03
1124.94
1018.24
903.159
784.245
666.156
553.257
449.169
356.229
274.976
204.143
142.428
90.3222
48.807
17.8957
-2.71848
-13.2123
-13.7741
-4.39038
15.0861
46.6923
92.4739
168.166
266.418
62.7301
-108.662
-306.856
-531.903
-768.822
-1019.04
-1274.95
-1521.09
-1747.28
-1949.51
-2124.14
-2268.78
-2383.35
-2468.22
-2524.68
-2553.91
-2557.61
-2538.24
-2499.34
-2445.17
-2380.28
-2308.31
-2231.02
-2148
-2057.14
-1955.48
-1842.31
-1719.3
-1587.56
-1447.37
-1299.35
-1144.37
-982.973
-814.813
-639.586
-453.166
-258.176
-29.6131
159.096
240.346
387.9
540.617
688.917
823.828
949.752
1060.9
1154.1
1229.27
1284.69
1319.24
1332.53
1324.41
1295.21
1245.91
1178.27
1094.69
998.261
892.691
782.098
670.805
562.982
462.224
371.031
290.308
219.378
157.355
104.643
62.1673
30.0985
8.2345
-3.55246
-5.401
2.76189
21.1171
51.6449
96.2687
169.585
262.775
92.0672
-64.1873
-245.393
-451.628
-668.749
-898.868
-1135.45
-1364.06
-1575.52
-1766.6
-1934.02
-2075.37
-2191.06
-2281.2
-2346.45
-2387.57
-2405.56
-2401.93
-2379.12
-2340.29
-2289.04
-2228.44
-2160.32
-2084.79
-2000.65
-1905.79
-1799.37
-1682.58
-1556.5
-1421.51
-1278.19
-1127.39
-969.673
-804.789
-632.548
-449.139
-257.42
-33.5115
152.487
247.565
382.961
523.408
659.667
783.438
899.238
1001.67
1088.14
1158.61
1211.47
1245.87
1261.4
1257.76
1235.04
1193.83
1135.39
1061.57
974.936
878.665
776.425
672.164
569.829
472.928
384.07
304.445
233.85
171.797
118.697
75.4363
42.3308
19.294
6.26006
3.14346
10.0792
27.2842
56.671
100.029
170.767
258.911
111.344
-31.9301
-198.45
-388.389
-588.304
-800.767
-1020.07
-1232.75
-1430.38
-1610.41
-1769.87
-1906.51
-2020.93
-2113.29
-2183.8
-2233.11
-2261.82
-2270.7
-2261.3
-2235.82
-2196.93
-2147.13
-2088.07
-2020.18
-1942.9
-1854.84
-1755.14
-1644.62
-1524.28
-1394.58
-1256.09
-1109.61
-955.743
-794.309
-625.221
-444.976
-256.729
-37.94
144.664
249.062
373.845
503.554
629.283
743.333
850.214
944.952
1025.36
1091.45
1141.76
1175.67
1192.79
1192.77
1175.53
1141.38
1091.18
1026.32
948.892
861.57
767.566
670.453
573.906
481.303
395.296
317.294
247.465
185.679
132.422
88.5706
54.5656
30.4479
16.2236
11.8647
17.5679
33.5909
61.7681
103.749
171.718
254.845
123.359
-8.59859
-162.282
-337.876
-522.656
-719.436
-923.173
-1121.3
-1305.96
-1475.17
-1626.24
-1757.1
-1868.47
-1960.82
-2034.16
-2088.97
-2125.61
-2144.36
-2146.08
-2132.13
-2104.38
-2064.71
-2014.49
-1954.26
-1883.94
-1802.66
-1709.65
-1605.44
-1490.92
-1366.61
-1233.07
-1091.05
-941.184
-783.365
-617.603
-440.703
-256.047
-42.7711
135.919
246.434
361.896
482.113
598.553
704.021
802.982
890.888
965.805
1027.8
1075.65
1108.82
1127.02
1129.87
1117.23
1089.17
1046.29
989.577
920.698
841.876
755.889
665.917
575.345
487.378
404.664
328.761
260.114
198.903
145.733
101.493
66.7402
41.6456
26.2971
20.7309
25.2027
40.0166
66.9188
107.414
172.443
250.595
130.025
7.97995
-134.352
-297.255
-468.604
-651.422
-841.144
-1025.96
-1198.62
-1357.48
-1500.18
-1624.78
-1732.13
-1822.93
-1897.2
-1955.29
-1997.45
-2023.68
-2034.32
-2030.09
-2012.15
-1981.77
-1939.98
-1887.31
-1823.92
-1749.37
-1662.99
-1565.09
-1456.46
-1337.62
-1209.14
-1071.72
-926.006
-771.966
-609.708
-436.349
-255.399
-47.968
126.494
240.889
348.086
459.842
568.016
665.849
757.742
839.536
909.461
967.661
1013.1
1045.37
1064.23
1069.35
1060.52
1037.71
1001.27
951.893
890.88
820.048
741.765
658.827
574.314
491.23
412.173
338.786
271.712
211.386
158.552
114.138
78.8006
52.8454
36.4497
29.7198
32.9673
46.5476
72.1105
111.01
172.95
246.181
132.738
19.505
-112.76
-264.315
-423.678
-593.945
-770.969
-943.656
-1105.19
-1254.3
-1388.79
-1506.93
-1609.64
-1697.8
-1771.57
-1831.24
-1877.01
-1908.72
-1926.37
-1930.19
-1920.74
-1898.75
-1864.9
-1819.56
-1763.01
-1695.08
-1615.24
-1523.64
-1420.93
-1307.64
-1184.32
-1051.62
-910.208
-760.115
-601.541
-431.933
-254.846
-53.5135
116.499
233.303
333.101
437.275
538.039
629.043
714.598
790.871
856.251
910.918
954.03
985.274
1004.49
1011.37
1005.71
987.376
956.566
913.753
859.915
796.517
725.553
649.456
570.997
492.954
417.838
347.324
282.181
223.046
170.801
126.43
90.6851
63.9973
46.6417
38.8007
40.8379
53.1642
77.3267
114.527
173.248
241.628
132.534
27.1752
-96.0526
-237.425
-386.009
-544.942
-710.441
-872.016
-1023.3
-1163.23
-1289.84
-1401.52
-1499.32
-1584.15
-1656.39
-1716.33
-1764.15
-1799.66
-1822.64
-1832.94
-1830.7
-1816.16
-1789.63
-1751.29
-1701.39
-1639.95
-1566.52
-1481.16
-1384.37
-1276.68
-1158.6
-1030.76
-893.79
-747.809
-593.101
-427.455
-254.432
-59.4083
105.975
224.318
317.447
414.787
508.869
593.721
673.555
744.826
806.037
857.443
898.326
928.478
947.8
956.028
952.962
938.445
912.545
875.56
828.219
771.683
707.607
638.088
565.592
492.664
421.694
354.344
291.454
233.803
182.403
138.299
102.33
75.049
56.8314
47.9409
48.7894
59.8461
82.5509
117.952
173.349
236.96
130.202
31.9175
-83.1658
-215.331
-354.171
-502.821
-657.812
-809.198
-951.008
-1082.37
-1201.47
-1306.82
-1399.56
-1480.66
-1550.63
-1609.87
-1658.55
-1696.46
-1723.31
-1738.72
-1742.46
-1734.42
-1714.54
-1682.77
-1639.27
-1584.12
-1516.95
-1437.74
-1346.86
-1244.79
-1132.02
-1009.14
-876.752
-735.047
-584.388
-422.908
-254.165
-65.6348
94.9654
214.411
301.513
392.652
480.671
559.956
634.609
701.33
758.704
807.088
845.857
874.871
894.101
903.34
902.404
891.12
869.479
837.646
796.152
745.903
688.258
625.003
558.314
490.502
423.813
359.858
299.497
243.602
193.292
149.676
113.672
85.9459
66.9737
57.1036
56.7928
66.5697
87.7649
121.276
173.267
232.201
126.325
34.4345
-73.2639
-197.059
-327.059
-466.326
-611.695
-753.728
-886.771
-1010.14
-1122.13
-1221.37
-1309.06
-1386.22
-1453.42
-1511.24
-1559.83
-1599.04
-1628.54
-1647.83
-1656.43
-1653.93
-1640
-1614.32
-1576.89
-1527.77
-1466.67
-1393.47
-1308.45
-1212.01
-1104.61
-986.773
-859.102
-721.831
-575.4
-418.288
-254.033
-72.1627
83.5269
203.945
285.568
371.043
453.554
527.765
597.718
660.27
714.121
759.701
796.458
824.32
843.325
853.298
854.096
845.543
827.582
800.286
764.026
719.5
667.815
610.474
549.382
486.623
424.276
363.881
306.279
252.386
203.4
160.491
124.646
96.6303
77.0198
66.2486
64.8163
73.3094
92.9503
124.488
173.018
227.381
121.352
35.274
-65.6987
-181.855
-303.783
-434.473
-570.994
-704.397
-829.342
-945.248
-1050.55
-1143.94
-1226.67
-1299.8
-1363.94
-1419.8
-1467.61
-1507.23
-1538.37
-1560.47
-1572.91
-1575.06
-1566.34
-1546.2
-1514.45
-1471.09
-1415.83
-1348.5
-1269.24
-1178.41
-1076.4
-963.691
-840.852
-708.166
-566.142
-413.59
-254.024
-78.9426
71.7303
193.194
269.808
350.106
427.569
497.162
562.807
621.542
672.145
715.128
749.978
776.692
795.359
805.85
808.049
801.798
787.012
763.696
732.104
692.761
646.56
594.758
539.014
481.183
423.183
366.454
311.79
260.114
212.673
170.682
135.188
107.044
86.9189
75.3331
72.8254
80.0379
98.0867
127.579
172.617
222.527
115.622
34.8536
-59.9658
-169.125
-283.641
-406.456
-534.822
-660.251
-777.683
-886.629
-985.628
-1073.47
-1151.39
-1220.5
-1281.42
-1334.97
-1381.48
-1420.82
-1452.77
-1476.78
-1492.15
-1498.1
-1493.88
-1478.72
-1452.22
-1414.28
-1364.59
-1302.92
-1229.33
-1144.06
-1047.45
-939.921
-822.02
-694.059
-556.61
-408.81
-254.121
-85.9221
59.6381
182.359
254.382
329.926
402.758
468.116
529.813
585.034
632.648
673.21
706.26
731.84
750.093
760.921
764.248
759.934
747.881
728.048
700.602
665.93
624.748
578.1
527.418
474.349
420.644
367.634
316.041
266.763
221.064
180.191
145.236
117.127
96.6175
84.311
80.7823
86.7251
103.154
130.542
172.083
217.668
109.402
33.4997
-55.6696
-158.39
-266.09
-381.633
-502.462
-620.501
-730.952
-833.407
-926.498
-1009.07
-1082.37
-1147.52
-1205.17
-1256.19
-1301.01
-1339.56
-1371.66
-1396.82
-1414.32
-1423.3
-1422.88
-1412.11
-1390.41
-1357.53
-1313.12
-1256.9
-1188.82
-1109.03
-1017.8
-915.501
-802.627
-679.523
-546.812
-403.939
-254.309
-93.0434
47.3167
171.599
239.393
310.553
379.12
440.59
498.652
550.634
595.488
633.797
665.148
689.628
707.41
718.436
722.661
719.968
710.262
693.47
669.696
639.22
602.61
560.727
514.804
466.295
416.786
367.494
319.057
272.32
228.536
188.966
154.731
126.821
106.062
93.1342
88.6476
93.3394
108.13
133.368
171.433
212.834
102.888
31.4682
-52.4931
-149.267
-250.674
-359.498
-473.337
-584.518
-688.475
-784.861
-872.4
-950.003
-1018.89
-1080.19
-1134.58
-1182.95
-1225.81
-1263.17
-1294.91
-1320.61
-1339.56
-1350.88
-1353.6
-1346.65
-1329.26
-1301.04
-1261.6
-1210.58
-1147.84
-1073.42
-987.532
-890.477
-782.701
-664.57
-536.748
-398.97
-254.565
-100.246
34.8413
161.027
224.915
292.023
356.647
414.537
469.243
518.231
560.533
596.737
626.491
649.903
667.18
678.292
683.226
681.893
674.196
660.057
639.528
612.807
580.342
542.842
501.365
457.187
411.738
366.119
320.876
276.786
235.064
196.963
163.621
136.069
115.196
101.753
96.3795
99.8478
112.994
136.053
170.685
208.052
96.2408
28.9594
-50.183
-141.45
-237.027
-339.624
-446.967
-551.756
-649.659
-740.373
-822.708
-895.618
-960.313
-1017.89
-1069.07
-1114.74
-1155.48
-1191.38
-1222.38
-1248.11
-1267.93
-1280.97
-1286.22
-1282.54
-1268.97
-1245.02
-1210.2
-1164.1
-1106.5
-1037.33
-956.716
-864.901
-762.277
-649.22
-526.423
-393.889
-254.864
-107.474
22.2933
150.724
211.002
274.348
335.322
389.911
441.506
487.722
527.656
561.905
590.148
612.531
629.279
640.39
645.878
645.678
639.705
627.874
610.205
586.836
558.117
524.632
487.282
447.188
405.633
363.601
321.553
280.178
240.633
204.146
171.854
144.815
123.967
110.115
103.934
106.215
117.723
138.589
169.855
203.35
89.5831
26.1281
-48.5468
-134.693
-224.861
-321.665
-422.953
-521.778
-614.014
-699.426
-776.869
-845.359
-906.08
-960.112
-1008.16
-1051.14
-1089.66
-1123.91
-1153.86
-1179.23
-1199.45
-1213.68
-1220.93
-1219.98
-1209.76
-1189.65
-1159.1
-1117.64
-1064.94
-1000.86
-925.437
-838.834
-741.395
-633.493
-515.843
-388.684
-255.173
-114.666
9.74937
140.756
197.682
257.533
315.117
366.646
415.359
459.002
496.737
529.159
555.988
577.382
593.589
604.626
610.539
611.282
606.784
596.962
581.811
561.428
536.086
506.26
472.724
436.455
398.602
360.043
321.149
282.521
245.24
210.488
179.389
153.01
132.32
118.17
111.267
112.407
122.294
140.972
168.96
198.754
83.0014
23.1046
-47.4185
-128.801
-213.934
-305.332
-400.962
-494.206
-581.152
-661.59
-734.44
-798.764
-855.721
-906.365
-951.392
-991.732
-1028.01
-1060.48
-1089.18
-1113.89
-1134.11
-1149.08
-1157.83
-1159.13
-1151.8
-1135.12
-1108.47
-1071.34
-1023.3
-964.135
-893.784
-812.347
-720.099
-617.413
-505.014
-383.342
-255.457
-121.759
-2.70741
131.17
184.973
241.569
296
344.685
390.723
431.972
467.66
498.38
523.875
544.322
559.983
570.897
577.131
578.656
575.419
567.342
554.408
536.68
514.37
487.871
457.839
425.134
390.779
355.553
319.743
283.858
248.894
215.974
186.191
160.606
140.204
125.869
118.332
118.387
126.685
143.198
168.015
194.288
76.5689
19.9798
-46.6708
-123.604
-204.037
-290.381
-380.721
-468.744
-550.728
-626.494
-695.024
-755.43
-808.831
-856.251
-898.381
-936.155
-970.205
-1000.82
-1028.13
-1051.96
-1071.88
-1087.22
-1097.04
-1100.12
-1095.26
-1081.6
-1058.5
-1025.36
-981.729
-927.273
-861.855
-785.505
-698.443
-601.013
-493.939
-377.847
-255.678
-128.693
-14.9971
121.993
172.882
226.443
277.935
323.972
367.519
406.539
440.321
469.449
493.689
513.235
528.351
539.099
545.565
547.738
545.578
539.017
528.033
512.663
493.072
469.585
442.764
413.36
382.288
350.233
317.41
284.233
251.613
220.597
192.233
167.562
147.572
133.162
125.084
124.119
130.874
145.261
167.034
189.972
70.3364
16.8346
-46.2003
-118.969
-195.008
-276.622
-361.996
-445.12
-522.447
-593.824
-658.29
-715.005
-765.052
-809.422
-848.791
-884.082
-915.947
-944.695
-970.516
-993.292
-1012.68
-1028.07
-1038.59
-1043.08
-1040.27
-1029.25
-1009.33
-979.873
-940.363
-890.395
-829.756
-758.397
-676.477
-584.319
-482.633
-372.182
-255.797
-135.408
-27.0392
113.245
161.414
212.132
260.881
304.448
345.67
382.615
414.618
442.255
465.314
483.999
498.581
509.135
515.76
518.467
517.226
511.981
502.711
489.43
472.275
451.508
427.619
401.261
373.248
344.191
314.233
283.708
253.425
224.359
197.496
173.845
154.38
140.003
131.481
129.568
134.838
147.158
166.025
185.824
64.3423
13.7268
-45.922
-114.793
-186.71
-263.889
-344.598
-423.115
-496.063
-563.313
-623.953
-677.19
-724.07
-765.553
-802.302
-835.218
-864.956
-891.851
-916.133
-937.755
-956.428
-971.612
-982.542
-988.071
-986.939
-978.193
-961.103
-935.014
-899.346
-853.634
-797.592
-731.104
-654.266
-567.368
-471.104
-366.332
-255.767
-141.85
-38.7562
104.936
150.556
198.615
244.795
286.056
325.107
360.113
390.456
416.695
438.644
456.51
470.569
480.904
487.632
490.775
490.316
486.216
478.448
467.022
452.042
433.73
412.506
388.945
363.774
337.529
310.3
282.34
254.369
227.271
201.97
179.427
160.589
146.35
137.478
134.699
138.555
148.882
164.997
181.856
58.6159
10.7027
-45.7735
-110.983
-179.031
-252.044
-328.362
-402.542
-471.367
-534.729
-591.767
-641.728
-685.624
-724.378
-758.642
-789.295
-816.985
-842.068
-864.802
-885.197
-903.021
-917.818
-928.891
-935.159
-935.375
-928.559
-913.97
-890.926
-858.811
-817.112
-765.475
-703.715
-631.872
-550.202
-459.359
-360.283
-255.552
-147.954
-50.0726
97.0703
140.301
185.864
229.636
268.741
305.761
338.953
367.741
392.672
413.576
430.66
444.21
454.313
461.095
464.592
464.804
461.695
455.247
445.462
432.424
416.321
397.514
376.512
353.966
330.344
305.694
280.199
254.486
229.354
205.652
184.287
166.168
152.164
143.037
139.48
142.004
150.431
163.956
178.079
53.1737
7.7964
-45.6995
-107.464
-171.877
-240.966
-313.151
-383.239
-448.179
-507.876
-561.518
-608.393
-649.479
-685.664
-717.574
-746.077
-771.806
-795.133
-816.332
-835.466
-852.358
-866.616
-877.62
-884.367
-885.637
-880.446
-868.04
-847.74
-818.896
-780.956
-733.51
-676.323
-609.365
-532.857
-447.418
-354.019
-255.101
-153.673
-60.9178
89.6469
130.634
173.849
215.365
252.447
287.561
319.056
346.387
370.091
390.01
406.354
419.408
429.268
436.065
439.85
440.63
438.383
433.093
424.761
413.456
399.337
382.719
364.052
343.917
322.731
300.502
277.355
253.829
230.636
208.552
188.417
171.091
157.413
148.123
143.879
145.165
151.796
162.906
174.497
48.028
5.03484
-45.6584
-104.18
-165.17
-230.561
-298.847
-365.073
-426.345
-482.584
-533.021
-576.989
-615.423
-649.19
-678.885
-705.352
-729.217
-750.849
-770.549
-788.416
-804.318
-817.928
-828.703
-835.713
-837.78
-833.931
-823.42
-805.571
-779.719
-745.283
-701.812
-649.014
-586.815
-515.381
-435.291
-347.527
-254.38
-158.955
-71.2286
82.6598
121.535
162.543
201.939
237.122
270.448
300.352
326.316
348.867
367.859
383.5
396.075
405.685
412.465
416.478
417.742
416.243
411.969
404.922
395.162
382.823
368.182
351.639
333.712
314.775
294.805
273.876
252.449
231.152
210.681
191.809
175.34
162.067
152.705
147.87
148.019
152.972
161.845
171.11
43.1852
2.43441
-45.6172
-101.083
-158.843
-220.745
-285.346
-347.928
-405.737
-458.71
-506.12
-547.345
-583.285
-614.769
-642.38
-666.928
-689.027
-709.045
-727.294
-743.904
-758.793
-771.681
-782.098
-789.193
-791.835
-789.08
-780.198
-764.524
-741.394
-710.209
-670.483
-621.884
-564.288
-497.82
-422.999
-340.796
-253.348
-163.755
-80.9451
76.0996
112.988
151.915
189.316
222.715
254.361
282.771
307.454
328.922
347.038
362.011
374.123
383.479
390.217
394.41
396.084
395.233
391.851
385.942
377.558
366.813
353.955
339.335
323.425
306.554
288.68
269.834
250.405
230.942
212.063
194.47
178.904
166.105
156.756
151.428
150.549
153.951
160.771
167.915
38.6477
0.00884554
-45.5527
-98.1302
-152.844
-211.45
-272.567
-331.704
-386.237
-436.125
-480.679
-519.318
-552.908
-582.245
-607.894
-630.636
-651.064
-669.552
-686.413
-701.794
-715.661
-727.78
-737.747
-744.782
-747.816
-745.937
-738.445
-724.691
-704.025
-675.839
-639.627
-595.023
-541.858
-480.217
-410.561
-333.819
-251.969
-168.03
-90.0134
69.956
104.969
141.935
177.457
209.177
239.243
266.248
289.725
310.173
327.463
341.804
353.47
362.571
369.249
373.579
375.599
375.309
372.711
367.808
360.647
351.33
340.074
327.196
313.12
298.14
282.199
265.295
247.755
230.05
212.726
196.411
181.779
169.515
160.257
154.531
152.739
154.728
159.679
164.903
34.4123
-2.23359
-45.444
-95.2933
-147.128
-202.617
-260.44
-316.312
-367.75
-414.723
-456.578
-492.777
-524.154
-551.474
-575.279
-596.324
-615.183
-632.22
-647.76
-661.957
-674.814
-686.141
-695.588
-702.451
-705.721
-704.529
-698.213
-686.15
-667.704
-642.273
-609.338
-568.515
-519.597
-462.625
-397.999
-326.592
-250.217
-171.747
-98.3895
64.2161
97.4591
132.573
166.323
196.46
225.039
250.72
273.064
292.549
309.061
322.8
334.038
342.885
349.484
353.919
356.23
356.426
354.516
350.501
344.428
336.387
326.572
315.265
302.852
289.596
275.43
260.327
244.557
228.524
212.703
197.649
183.97
172.287
163.193
157.164
154.575
155.293
158.561
162.063
30.4746
-4.28962
-45.2775
-92.5465
-141.658
-194.197
-248.899
-301.683
-350.191
-394.403
-433.708
-467.607
-496.898
-522.322
-544.399
-563.854
-581.238
-596.915
-611.2
-624.265
-636.136
-646.664
-655.549
-662.154
-665.538
-664.875
-659.544
-648.958
-632.503
-609.593
-579.706
-542.444
-497.573
-445.09
-385.337
-319.117
-248.068
-174.875
-106.04
58.864
90.4353
123.798
155.875
184.521
211.697
236.133
257.407
275.986
291.761
304.929
315.756
324.351
330.859
335.367
337.921
338.538
337.229
334.001
328.895
321.993
313.469
303.579
292.668
280.977
268.433
254.991
240.871
226.415
212.033
198.211
185.487
174.423
165.555
159.316
156.048
155.638
157.408
159.378
26.8277
-6.15734
-45.0432
-89.8687
-136.401
-186.148
-237.892
-287.75
-333.484
-375.084
-411.981
-443.707
-471.038
-494.683
-515.14
-533.104
-549.109
-563.509
-576.613
-588.604
-599.523
-609.261
-617.559
-623.842
-627.241
-626.975
-622.464
-613.161
-598.488
-577.875
-550.81
-516.887
-475.851
-427.663
-372.603
-311.393
-245.505
-177.393
-112.934
53.886
83.8752
115.583
146.078
173.314
199.167
222.427
242.693
260.418
275.495
288.12
298.552
306.897
313.304
317.862
320.619
321.597
320.814
318.28
314.033
308.148
300.781
292.163
282.607
272.332
261.264
249.345
236.752
223.773
210.757
198.126
186.351
175.928
167.342
160.979
157.147
155.757
156.207
156.829
23.4627
-7.83933
-44.7345
-87.2456
-131.336
-178.435
-227.376
-274.458
-317.567
-356.696
-391.317
-420.996
-446.481
-468.453
-487.395
-503.968
-518.685
-531.89
-543.887
-554.863
-564.872
-573.838
-581.54
-587.461
-590.794
-590.814
-586.984
-578.797
-565.712
-547.185
-522.719
-491.912
-454.491
-410.389
-359.824
-303.433
-242.514
-179.286
-119.052
49.2653
77.7566
107.898
136.896
162.8
187.404
209.554
228.868
245.784
260.201
272.309
282.362
290.462
296.759
301.344
304.268
305.558
305.235
303.313
299.829
294.849
288.516
281.039
272.702
263.704
253.973
243.443
232.255
220.65
208.921
197.429
186.583
176.817
168.56
162.152
157.869
155.641
154.947
154.397
20.3696
-9.3385
-44.3481
-84.6643
-126.439
-171.028
-217.31
-261.763
-302.382
-339.172
-371.643
-399.392
-423.143
-443.547
-461.069
-476.344
-489.86
-501.952
-512.915
-522.937
-532.083
-540.307
-547.415
-552.947
-556.156
-556.372
-553.104
-545.883
-534.21
-517.57
-495.492
-467.579
-433.552
-393.314
-347.031
-295.246
-239.094
-180.543
-124.383
44.985
72.0571
100.714
128.296
152.94
176.361
197.462
215.876
232.026
245.819
257.435
267.123
274.984
281.165
285.758
288.817
290.375
290.454
289.07
286.261
282.088
276.678
270.222
262.978
255.127
246.604
237.335
227.432
217.096
206.57
196.159
186.214
177.11
169.218
162.839
158.212
155.285
153.615
152.059
17.5384
-10.6606
-43.8808
-82.1155
-121.695
-163.903
-207.661
-249.621
-287.882
-322.461
-352.896
-378.826
-400.947
-419.882
-436.078
-450.143
-462.543
-473.599
-483.599
-492.729
-501.066
-508.578
-515.105
-520.235
-523.28
-523.621
-520.811
-514.426
-504.007
-489.072
-469.18
-443.944
-413.084
-376.484
-334.255
-286.852
-235.249
-181.166
-128.923
41.0285
66.7557
94.0044
120.244
143.696
165.997
186.105
203.668
219.094
232.293
243.442
252.778
260.405
266.464
271.049
274.217
276.002
276.431
275.521
273.309
269.852
265.264
259.721
253.454
246.632
239.194
231.065
222.333
213.161
203.751
194.359
185.279
176.83
169.333
163.047
158.176
154.683
152.195
149.792
14.9562
-11.8107
-43.3346
-79.5926
-117.089
-157.037
-198.401
-237.996
-274.023
-306.509
-335.024
-359.241
-379.828
-397.386
-412.345
-425.282
-436.646
-446.742
-455.85
-464.151
-471.728
-478.567
-484.535
-489.259
-492.11
-492.52
-490.085
-484.425
-475.116
-461.719
-443.819
-421.051
-393.135
-359.94
-321.528
-278.272
-230.99
-181.161
-132.676
37.3794
61.8302
87.7436
112.709
135.031
156.272
175.439
192.196
206.935
219.571
230.272
239.272
246.669
252.603
257.167
260.419
262.397
263.129
262.634
260.95
258.127
254.272
249.541
244.147
238.243
231.777
224.675
217.002
208.893
200.512
192.07
183.813
176.009
168.927
162.79
157.767
153.832
150.676
147.572
12.6114
-12.7975
-42.7106
-77.0924
-112.611
-150.414
-189.506
-226.857
-260.769
-291.273
-317.975
-340.578
-359.726
-375.996
-389.8
-401.691
-412.093
-421.301
-429.582
-437.116
-443.986
-450.193
-455.627
-459.95
-462.59
-463.027
-460.9
-455.864
-447.541
-435.527
-419.439
-398.935
-373.744
-343.719
-308.884
-269.529
-226.333
-180.542
-135.655
34.0208
57.26
81.9054
105.663
126.913
147.148
165.423
181.416
195.503
207.603
217.879
226.554
233.726
239.531
244.061
247.376
249.516
250.51
250.38
249.159
246.899
243.693
239.685
235.067
229.982
224.383
218.2
211.483
204.339
196.9
189.34
181.86
174.681
168.027
162.085
156.992
152.731
149.046
145.376
10.4913
-13.6276
-42.0124
-74.611
-108.252
-144.018
-180.953
-216.176
-248.085
-276.716
-301.706
-322.791
-340.587
-355.653
-368.382
-379.3
-388.813
-397.201
-404.721
-411.545
-417.761
-423.378
-428.305
-432.242
-434.662
-435.094
-433.217
-428.723
-421.272
-410.501
-396.058
-377.625
-354.943
-327.856
-296.354
-260.654
-221.3
-179.33
-137.878
30.9367
53.0244
76.4654
99.0753
119.308
138.589
156.017
171.285
184.753
196.343
206.211
214.574
221.526
227.199
231.686
235.046
237.319
238.537
238.725
237.913
236.148
233.518
230.151
226.222
221.863
217.036
211.674
205.814
199.541
192.961
186.212
179.459
172.882
166.662
160.953
155.864
151.381
147.292
143.181
8.58371
-14.3106
-41.242
-72.1474
-104.004
-137.837
-172.725
-205.93
-235.94
-262.801
-286.177
-305.833
-322.364
-336.303
-348.032
-358.049
-366.739
-374.372
-381.191
-387.362
-392.973
-398.043
-402.496
-406.062
-408.263
-408.668
-406.994
-402.971
-396.295
-386.639
-373.684
-357.14
-336.759
-312.382
-283.97
-251.675
-215.922
-177.552
-139.37
28.1104
49.1045
71.3999
92.9198
112.185
130.561
147.186
161.763
174.642
185.746
195.224
203.287
210.023
215.563
219.997
223.384
225.767
227.178
227.64
227.186
225.858
223.735
220.935
217.616
213.9
209.757
205.125
200.03
194.54
188.738
182.733
176.656
170.652
164.865
159.419
154.397
149.785
145.407
140.969
6.87624
-14.8549
-40.4052
-69.7009
-99.864
-131.86
-164.804
-196.095
-224.31
-249.497
-271.352
-289.663
-305.01
-317.898
-328.697
-337.879
-345.811
-352.749
-358.924
-364.497
-369.554
-374.117
-378.128
-381.344
-383.328
-383.693
-382.187
-378.574
-372.585
-363.928
-352.319
-337.49
-319.212
-297.323
-271.764
-242.626
-210.229
-175.241
-140.163
25.5267
45.4806
66.6869
87.1701
105.517
123.032
138.891
152.813
165.131
175.771
184.876
192.649
199.174
204.579
208.953
212.352
214.823
216.396
217.096
216.953
216.008
214.333
212.033
209.252
206.103
202.565
198.579
194.166
189.376
184.274
178.946
173.495
168.032
162.673
157.511
152.608
147.948
143.383
138.719
5.35605
-15.269
-39.5069
-67.2719
-95.8252
-126.077
-157.176
-186.654
-213.168
-236.775
-257.196
-274.246
-288.483
-300.391
-310.326
-318.737
-325.971
-332.271
-337.856
-342.881
-347.43
-351.53
-355.133
-358.021
-359.796
-360.111
-358.744
-355.49
-350.112
-342.351
-331.954
-318.679
-302.315
-282.702
-259.762
-233.539
-204.259
-172.435
-140.292
23.1702
42.1344
62.3047
81.8014
99.2748
115.97
131.102
144.399
156.183
166.38
175.127
182.619
188.938
194.207
198.513
201.913
204.45
206.159
207.062
207.19
206.581
205.299
203.438
201.13
198.48
195.473
192.059
188.249
184.083
179.609
174.895
170.017
165.064
160.12
155.258
150.517
145.879
141.216
136.417
4.01114
-15.5622
-38.552
-64.8617
-91.8859
-120.481