/*--------------------------------*- C++ -*----------------------------------*\
| =========                 |                                                 |
| \\      /  F ield         | OpenFOAM: The Open Source CFD Toolbox           |
|  \\    /   O peration     | Version:  v1806                                 |
|   \\  /    A nd           | Web:      www.OpenFOAM.com                      |
|    \\/     M anipulation  |                                                 |
\*---------------------------------------------------------------------------*/
FoamFile
{
    version     2.0;
    format      ascii;
    class       volScalarField;
    location    "243";
    object      p;
}
// * * * * * * * * * * * * * * * * * * * * * * * * * * * * * * * * * * * * * //

dimensions      [0 2 -2 0 0 0 0];


internalField   nonuniform List<scalar> 
10720
(
1586.88
1740.57
1854.69
1907.96
1913.49
1870.95
1763.87
1604.78
1408.18
1186.56
948.322
702.82
458.299
220.067
-7.05724
-217.855
-410.552
-578.776
-722.14
-834.426
-915.531
-960.171
-974.082
-959.18
-927.063
-897.874
-870.652
-833.656
-786.783
-731.787
-668.931
-598.563
-520.973
-436.01
-343.179
-238.792
-118.653
44.4699
267.983
1394.37
1165.47
859.542
492.686
81.2461
-365.182
-810.831
-1196.58
-1481.48
-1679.04
-1786.14
-1813.93
-1799.43
-1758.98
-1696.68
-1632.08
-1567.6
-1510
-1461.05
-1426.18
-1403.35
-1392.83
-1389.94
-1388.01
-1366.84
-1318.5
-1256.52
-1185.75
-1106.4
-1018.27
-922.329
-819.56
-710.511
-594.751
-471.436
-336.41
-184.216
11.6498
270.546
1571.12
1685.86
1775.29
1827.12
1836.43
1799.25
1714.11
1587.69
1426.76
1238.82
1030.95
810.577
584.973
360.073
141.245
-66.358
-259.121
-431.728
-581.687
-703.963
-796.73
-856.508
-886.12
-887.475
-870.971
-852.733
-832.867
-802.342
-760.989
-710.65
-651.777
-584.765
-509.97
-427.298
-336.275
-233.269
-114.205
48.2381
265.37
1434.54
1266.53
1051.9
789.61
488.346
156.086
-186.524
-509.428
-788.943
-1018.25
-1191.79
-1308.47
-1379.86
-1416.11
-1425.87
-1421.1
-1406.18
-1386.81
-1367.25
-1352.74
-1343.54
-1340.72
-1341.52
-1340.3
-1321.73
-1279.09
-1222.63
-1156.91
-1082.17
-998.223
-906.008
-806.453
-700.098
-586.557
-464.997
-331.323
-180.219
14.9988
267.77
1497.87
1596.81
1673.95
1721.09
1733.3
1706.92
1640.18
1535.47
1396.38
1228.78
1039.06
833.775
619.852
403.6
190.757
-13.3958
-204.281
-377.077
-528.2
-653.421
-750.171
-815.772
-851.277
-859.618
-849.273
-833.61
-814.754
-786.025
-746.637
-698.185
-641.159
-575.858
-502.591
-421.239
-331.292
-229.136
-110.748
50.64
261.605
1379.83
1235.25
1050.96
822.397
557.764
262.055
-51.5634
-360.838
-643.066
-883.634
-1074.66
-1211.09
-1299.33
-1350.63
-1374.15
-1378.54
-1370.26
-1355.27
-1338.55
-1324.53
-1314.85
-1310.6
-1309.69
-1307.05
-1290.31
-1252.37
-1199.98
-1137.64
-1065.86
-984.596
-894.731
-797.209
-692.572
-580.475
-460.073
-327.321
-176.996
17.0819
263.938
1410.9
1495.42
1562.95
1606.25
1620.38
1602.03
1549.4
1463.47
1346.24
1201.91
1035.32
851.616
656.688
456.26
255.854
60.7322
-124.257
-294.329
-445.325
-573.147
-674.686
-747.377
-791.527
-809.895
-809.127
-800.112
-786.072
-762.027
-726.766
-681.77
-627.711
-564.926
-493.767
-414.155
-325.599
-224.556
-107.118
52.6559
257.411
1311.06
1190.22
1036.15
845.21
624.453
375.736
108.799
-158.295
-408.56
-630.435
-816.344
-962.347
-1071.22
-1149.55
-1202.1
-1234.01
-1250.64
-1257.16
-1258.17
-1257.83
-1258.54
-1261.39
-1264.95
-1264.98
-1251.99
-1219.43
-1171.87
-1113.69
-1045.66
-967.801
-880.939
-786.012
-683.576
-573.319
-454.409
-322.876
-173.655
18.6634
259.119
1318.72
1392.62
1452.64
1492.46
1507.62
1495.25
1453.71
1383.03
1283.94
1159.36
1012.8
848.204
670.556
484.931
296.51
110.462
-68.2189
-234.69
-384.455
-513.427
-618.11
-695.991
-746.777
-772.54
-778.751
-774.387
-763.298
-742.093
-709.496
-666.873
-615.008
-554.23
-484.867
-406.831
-319.61
-219.704
-103.344
54.5224
252.723
1231.62
1127.04
993.561
827.593
635.888
418.413
182.275
-57.7128
-288.026
-499.269
-684.13
-837.733
-959.629
-1052.23
-1118.73
-1163.4
-1191.32
-1207.32
-1215.76
-1220.53
-1224.3
-1228.34
-1231.75
-1231.12
-1219.05
-1189.65
-1145.56
-1090.63
-1025.72
-950.837
-866.714
-774.245
-673.963
-565.573
-448.23
-318.041
-170.143
19.9929
253.325
1227.91
1293.16
1346.9
1383.57
1399.05
1390.91
1357.71
1299.13
1215.16
1107.83
979.658
833.522
673.472
503.813
329.143
154.302
-15.8151
-176.463
-323.029
-451.332
-557.71
-639.531
-695.952
-728.559
-741.763
-742.817
-735.678
-718.224
-689.2
-649.751
-600.71
-542.422
-475.208
-398.996
-313.286
-214.66
-99.5377
56.0765
247.471
1151.27
1060.02
943.52
798.416
631.262
440.897
232.788
19.6963
-187.22
-380.66
-554.044
-702.744
-825.687
-923.933
-999.849
-1056.47
-1097.19
-1125.51
-1144.93
-1158.81
-1169.68
-1178.86
-1185.86
-1187.94
-1179.33
-1154.82
-1115.63
-1065.01
-1003.95
-932.562
-851.541
-761.779
-663.821
-557.416
-441.746
-313.016
-166.631
20.8949
246.594
1140.93
1199.08
1247.57
1281.29
1296.57
1291.45
1264.6
1215.6
1144.03
1051.3
939.154
809.624
665.919
511.568
350.539
187.257
26.3181
-127.664
-270.079
-396.712
-503.785
-588.514
-649.639
-688.154
-707.508
-713.474
-709.896
-695.711
-669.822
-633.179
-586.666
-530.657
-465.464
-391.017
-306.814
-209.519
-95.7514
57.2889
241.737
1072.77
992.127
889.117
760.568
612.816
444.038
258.484
67.3575
-119.942
-297.799
-460.619
-604.113
-727.065
-829.601
-912.747
-978.059
-1027.85
-1064.76
-1091.86
-1112.01
-1127.59
-1139.89
-1148.72
-1151.92
-1145.04
-1123.62
-1087.96
-1040.65
-982.761
-914.42
-836.243
-749.053
-653.372
-548.965
-435.016
-307.848
-163.151
21.3427
239.08
1058.97
1111.15
1155.13
1186.12
1200.86
1197.85
1175.84
1134.4
1072.97
992.532
894.278
779.61
651.009
511.293
363.805
212.44
61.422
-84.8762
-221.981
-345.729
-452.277
-538.705
-603.415
-646.839
-671.609
-682.283
-682.379
-671.597
-649.029
-615.419
-571.65
-518.121
-455.127
-382.597
-300.039
-204.222
-91.983
58.1532
235.589
997.898
926.045
834.218
719.434
587.787
437.102
270.785
98.8546
-70.5907
-233.144
-384.046
-519.452
-638.262
-740.209
-825.629
-895.472
-951.331
-995.111
-1029.05
-1055.39
-1076.1
-1092.35
-1104.12
-1109.75
-1105.74
-1088.29
-1056.99
-1013.76
-959.642
-894.825
-819.854
-735.514
-642.323
-540.079
-427.999
-302.541
-159.716
21.3617
230.962
982.372
1029.47
1069.51
1097.98
1111.99
1110.42
1092.12
1056.72
1003.6
933.456
847.139
745.551
630.595
504.48
369.941
230.343
89.475
-48.6247
-179.712
-299.733
-404.84
-492.013
-559.379
-606.869
-636.364
-651.393
-655.029
-647.493
-628.105
-597.442
-556.36
-505.285
-444.495
-373.918
-293.068
-198.832
-88.2775
58.643
229.031
927.307
862.804
780.324
677.05
558.845
423.306
273.241
117.68
-36.2019
-184.945
-324.516
-451.52
-565.121
-664.957
-751.012
-823.784
-884.19
-933.367
-972.877
-1004.38
-1029.46
-1049.12
-1063.43
-1071.08
-1069.33
-1055
-1027.28
-987.55
-936.773
-875.179
-803.238
-721.664
-630.951
-530.908
-420.774
-297.15
-156.374
20.9396
222.336
911.113
953.832
990.393
1016.54
1029.74
1029.14
1013.68
983.121
936.828
875.327
799.226
709.085
606.355
492.723
370.387
242.216
111.506
-18.075
-142.575
-258.096
-360.884
-447.861
-516.928
-567.584
-601.061
-620.027
-627.074
-622.712
-606.476
-578.797
-540.465
-491.919
-433.42
-364.889
-285.852
-193.332
-84.6396
58.7537
222.078
861.199
802.951
728.422
634.939
528.13
405.5
269.371
128.014
-12.1506
-148.346
-277.131
-395.473
-502.83
-598.912
-683.532
-756.923
-819.577
-872.137
-915.623
-951.201
-980.03
-1002.88
-1019.8
-1029.75
-1030.57
-1019.58
-995.681
-959.735
-912.575
-854.441
-785.738
-707.111
-619.032
-521.333
-413.285
-291.662
-153.138
20.0642
213.259
844.97
883.876
917.354
941.363
953.698
953.731
940.499
913.856
873.197
818.963
751.605
671.439
579.563
477.257
366.262
248.958
128.184
7.20751
-110.344
-220.81
-320.574
-406.551
-476.481
-529.489
-566.259
-588.724
-598.986
-597.664
-584.476
-559.732
-524.14
-478.139
-421.972
-355.552
-278.417
-187.737
-81.0872
58.4888
214.747
799.526
746.651
678.955
593.894
496.851
385.305
261.222
132.211
4.09271
-120.864
-239.664
-349.627
-450.469
-542.028
-624.071
-696.749
-760.308
-815.009
-861.442
-900.297
-932.332
-958.044
-977.431
-989.615
-992.825
-984.797
-964.34
-931.895
-888.145
-833.336
-767.804
-692.116
-606.709
-511.425
-405.571
-286.098
-150.032
18.7361
203.785
783.646
819.199
849.924
871.975
883.445
883.871
872.387
848.936
812.971
764.876
705.006
633.517
551.246
459.144
358.57
251.482
140.279
27.8278
-82.5987
-187.608
-283.76
-368.02
-438.026
-492.609
-531.986
-557.475
-570.705
-572.277
-562.032
-540.182
-507.335
-463.91
-410.13
-345.896
-270.76
-182.058
-77.6319
57.8521
207.07
742.111
693.91
632.14
554.397
465.809
363.882
250.303
132.098
14.6204
-100.25
-209.887
-311.896
-406.18
-492.722
-571.352
-642.193
-705.37
-760.916
-809.088
-850.219
-884.71
-912.808
-934.417
-948.738
-954.304
-949.159
-932.077
-903.148
-862.867
-811.454
-749.18
-676.529
-593.899
-501.147
-397.616
-280.462
-147.066
16.9702
193.945
726.806
759.398
787.646
807.909
818.533
819.189
809.09
788.262
756.235
713.354
659.917
595.977
522.18
439.225
348.156
250.565
148.455
44.308
-58.9631
-158.257
-250.352
-332.298
-401.692
-457.136
-498.464
-526.492
-542.405
-546.696
-539.262
-520.233
-490.108
-449.268
-397.915
-335.934
-262.892
-176.304
-74.2837
56.8573
199.076
688.728
644.613
588.036
516.7
435.506
341.985
237.619
128.945
20.8938
-84.9392
-186.224
-280.79
-368.694
-450.065
-524.801
-593.08
-654.971
-710.375
-759.343
-801.945
-838.283
-868.359
-891.955
-908.288
-916.083
-913.616
-899.671
-874.081
-837.155
-789.071
-730.034
-660.445
-580.653
-490.522
-389.438
-274.766
-144.252
14.7788
183.772
674.124
704.084
730.097
748.722
758.533
759.306
750.319
731.672
702.975
664.545
616.652
559.285
492.955
418.173
335.72
246.881
153.324
57.1623
-39.0374
-132.477
-220.178
-299.319
-367.499
-423.154
-465.816
-495.898
-514.175
-520.984
-516.21
-499.915
-472.477
-434.228
-385.337
-325.674
-254.824
-170.487
-71.0559
55.5204
190.799
639.11
598.607
546.605
480.931
406.24
320.133
223.919
123.682
24.0192
-73.7104
-167.392
-255.055
-336.869
-413.074
-483.656
-548.858
-608.765
-663.222
-712.154
-755.447
-792.978
-824.546
-849.799
-867.938
-877.801
-877.835
-866.853
-844.488
-810.866
-766.093
-710.312
-643.834
-566.956
-479.548
-381.039
-269.02
-141.597
12.1895
173.304
625.286
652.884
676.88
694.007
703.055
703.861
695.774
678.966
653.1
618.492
575.4
523.776
464.027
396.522
321.85
241.038
155.458
66.8949
-22.4216
-109.991
-193.079
-269.023
-335.477
-390.762
-434.186
-465.841
-486.138
-495.241
-492.959
-479.287
-454.486
-418.819
-372.416
-315.132
-246.567
-164.618
-67.9544
53.8572
182.279
593.004
555.703
507.769
447.126
378.205
298.676
209.709
116.996
24.8249
-65.6065
-152.379
-233.674
-309.749
-380.928
-447.265
-509.092
-566.526
-619.427
-667.657
-710.984
-749.126
-781.722
-808.303
-828.026
-839.776
-842.112
-833.883
-814.577
-784.149
-742.626
-690.079
-626.735
-552.832
-468.237
-372.43
-263.233
-139.109
9.22319
162.587
579.98
605.456
627.628
643.393
651.728
652.507
645.161
629.916
606.481
575.177
536.262
489.663
435.719
374.699
307.037
233.55
155.356
73.9553
-8.73338
-90.495
-168.85
-241.313
-305.615
-360.025
-403.688
-436.453
-458.416
-469.562
-469.586
-458.411
-436.178
-403.07
-359.173
-304.322
-238.134
-158.709
-64.9885
51.8923
173.557
550.161
515.719
471.411
415.271
351.496
277.842
195.357
109.386
23.9425
-59.905
-140.396
-215.834
-286.538
-352.889
-415.017
-473.314
-527.964
-578.851
-625.842
-668.637
-706.86
-740.033
-767.586
-788.626
-802.039
-806.471
-800.786
-784.371
-757.029
-718.69
-669.356
-609.165
-538.291
-456.602
-363.622
-257.415
-136.789
5.91365
151.665
537.941
561.506
582.02
596.542
604.21
604.929
598.204
584.294
562.963
534.537
499.267
457.084
408.274
353.03
291.668
224.839
153.448
78.7477
2.38318
-73.7048
-147.288
-216.068
-277.88
-330.982
-374.412
-407.846
-431.121
-444.041
-446.175
-437.351
-417.602
-387.019
-345.635
-293.265
-229.542
-152.773
-62.1603
49.6515
164.672
510.34
478.465
437.414
385.322
326.16
257.783
181.13
101.225
21.85
-56.0414
-130.808
-200.865
-266.568
-328.343
-386.364
-441.095
-492.771
-541.334
-586.67
-628.472
-666.312
-699.64
-727.82
-749.904
-764.748
-771.052
-767.692
-753.982
-729.592
-694.354
-648.189
-591.154
-523.358
-444.657
-354.627
-251.573
-134.639
2.29381
140.585
498.917
520.752
539.755
553.143
560.191
560.838
554.635
541.88
522.386
496.477
464.411
426.121
381.856
331.756
276.053
215.264
150.115
81.6513
11.2714
-59.332
-128.176
-193.151
-252.211
-303.647
-346.434
-380.129
-404.367
-418.781
-422.811
-416.181
-398.814
-370.707
-331.833
-281.984
-220.809
-146.819
-59.4729
47.1653
155.674
473.32
443.758
405.647
357.212
302.211
238.594
167.215
92.8011
18.9163
-53.5633
-123.107
-188.222
-249.289
-306.755
-360.831
-412.031
-460.652
-506.688
-550.066
-590.506
-627.571
-660.675
-689.139
-711.978
-728.004
-735.951
-734.693
-723.493
-701.91
-669.673
-626.625
-572.738
-508.055
-432.422
-345.46
-245.716
-132.655
-1.5957
129.404
462.674
482.937
500.566
512.918
519.398
519.96
514.204
502.46
484.582
460.891
431.651
396.804
356.575
311.068
260.449
205.129
145.691
83.0015
18.2455
-47.1086
-111.303
-172.416
-228.542
-278.021
-319.806
-353.391
-378.256
-393.877
-399.583
-394.975
-379.873
-354.18
-317.803
-270.506
-211.953
-140.861
-56.9253
44.4666
146.611
438.894
411.427
375.983
330.863
279.634
220.334
153.744
84.3197
15.4307
-52.1159
-116.882
-177.459
-234.233
-287.662
-337.988
-385.755
-431.31
-474.708
-515.924
-554.722
-590.687
-623.236
-651.67
-674.98
-691.929
-701.281
-701.898
-693.004
-674.066
-644.717
-604.717
-553.958
-492.413
-419.916
-336.133
-239.852
-130.83
-5.71513
118.174
429.001
447.836
464.21
475.618
481.576
482.049
476.682
465.832
449.383
427.656
400.923
369.136
332.504
291.104
245.052
194.68
140.453
83.0875
23.5882
-36.775
-96.4555
-153.714
-206.786
-254.081
-294.567
-327.707
-352.882
-369.425
-376.578
-373.812
-360.846
-337.492
-303.584
-258.859
-202.998
-134.909
-54.5142
41.5904
137.53
406.876
381.314
348.295
306.195
258.395
203.028
140.807
75.938
11.6107
-51.4253
-111.816
-168.215
-221.012
-270.673
-317.455
-361.925
-404.464
-445.182
-484.109
-521.069
-555.681
-587.386
-615.5
-639.006
-656.63
-667.146
-669.407
-662.609
-646.146
-619.558
-582.524
-534.858
-476.466
-407.166
-326.667
-233.983
-129.153
-10.0194
106.949
397.71
415.239
430.464
441.014
446.493
446.878
441.858
431.804
416.628
396.653
372.154
343.096
309.673
271.95
230.007
184.109
134.631
82.1657
27.562
-28.088
-83.4252
-136.882
-186.837
-231.786
-270.732
-303.137
-328.326
-345.519
-353.885
-352.771
-341.801
-320.696
-289.22
-247.078
-193.964
-128.973
-52.2323
38.5757
128.484
377.093
353.268
322.462
283.122
238.456
186.684
128.463
67.7653
7.61653
-51.2789
-107.644
-160.199
-209.319
-255.471
-298.92
-340.244
-379.855
-417.905
-454.483
-489.47
-522.536
-553.168
-580.707
-604.155
-622.207
-633.648
-637.323
-632.411
-618.241
-594.274
-560.111
-515.49
-460.253
-394.198
-317.075
-228.118
-127.61
-14.4605
95.7873
368.624
384.957
399.13
408.897
413.939
414.243
409.535
400.194
386.16
367.757
345.259
318.643
288.096
253.672
215.428
173.579
128.425
80.4572
30.392
-20.831
-72.0184
-121.766
-168.59
-211.08
-248.298
-279.724
-304.66
-322.242
-331.589
-331.934
-322.81
-303.854
-274.759
-235.199
-184.878
-123.066
-50.0716
35.4629
119.525
349.387
327.149
298.369
261.56
219.769
171.295
116.75
59.8897
3.58405
-51.501
-104.159
-153.164
-198.881
-241.767
-282.091
-320.437
-357.234
-392.674
-426.897
-459.835
-491.219
-520.591
-547.341
-570.499
-588.747
-600.879
-605.745
-602.505
-590.441
-568.946
-537.547
-495.91
-443.816
-381.044
-307.379
-222.256
-126.185
-18.9917
84.7484
341.58
356.819
370.026
379.08
383.726
383.954
379.531
370.837
357.834
340.846
320.148
295.728
267.766
236.31
201.401
163.215
121.995
78.1467
32.2783
-14.8037
-62.0507
-108.209
-151.93
-191.904
-227.251
-257.494
-281.94
-299.67
-309.772
-311.381
-303.946
-287.029
-260.252
-223.259
-175.765
-117.195
-48.0211
32.2891
110.701
323.611
302.829
275.907
241.428
202.28
156.843
105.688
52.3683
-0.387285
-51.9569
-101.187
-146.91
-189.477
-229.33
-266.735
-302.274
-336.39
-369.307
-401.203
-432.061
-461.675
-489.652
-515.434
-538.097
-556.329
-568.929
-574.767
-572.989
-562.84
-543.658
-514.905
-476.178
-427.202
-367.736
-297.595
-216.402
-124.856
-23.5627
73.8874
316.433
330.668
342.988
351.392
355.676
355.84
351.679
343.574
331.51
315.804
296.731
274.291
248.659
219.881
187.984
153.116
115.474
75.3981
33.4021
-9.81805
-53.3476
-96.0615
-136.743
-174.18
-207.56
-236.46
-260.214
-277.874
-288.515
-291.192
-285.285
-270.285
-245.754
-211.302
-166.651
-111.371
-46.0669
29.0968
102.065
299.629
280.187
254.977
222.647
185.937
143.305
95.2858
45.2451
-4.22918
-52.5424
-98.5979
-141.279
-180.925
-217.958
-252.641
-285.548
-317.124
-347.62
-377.247
-406.036
-433.835
-460.318
-484.993
-506.986
-525.011
-537.874
-544.475
-543.953
-535.529
-518.496
-492.26
-456.36
-410.463
-354.31
-287.747
-210.554
-123.599
-28.1235
63.2629
293.049
306.357
317.866
325.675
329.631
329.742
325.824
318.261
307.054
292.515
274.918
254.271
230.745
204.386
175.215
143.357
108.971
72.3456
33.9152
-5.71701
-45.7518
-85.1849
-122.914
-157.828
-189.183
-216.619
-239.51
-256.907
-267.881
-271.441
-266.9
-253.691
-231.321
-199.369
-157.565
-105.6
-44.195
25.9258
93.6623
277.319
259.111
235.48
205.141
170.684
130.652
85.5407
38.5411
-7.88562
-53.1742
-96.2818
-136.142
-173.074
-207.484
-239.629
-270.075
-299.262
-327.456
-354.893
-381.649
-407.628
-432.559
-456.019
-477.195
-494.844
-507.779
-514.95
-515.484
-508.596
-493.546
-469.69
-436.519
-393.651
-340.806
-277.851
-204.715
-122.39
-32.6247
52.9294
271.304
283.759
294.522
301.787
305.446
305.514
301.825
294.763
284.343
270.87
254.617
235.599
213.984
189.818
163.118
133.992
102.572
69.1001
33.9502
-2.35829
-39.1214
-75.445
-110.331
-142.765
-172.077
-197.963
-219.855
-236.818
-247.937
-252.2
-248.865
-237.313
-217.009
-187.507
-148.533
-99.8942
-42.3875
22.8153
85.5401
256.567
239.498
217.328
188.833
156.467
118.849
76.4446
32.2757
-11.3152
-53.789
-94.1523
-131.389
-165.8
-197.775
-227.559
-255.703
-282.647
-308.663
-334.007
-358.789
-382.965
-406.317
-428.488
-448.737
-465.863
-478.704
-486.263
-487.668
-482.13
-468.892
-447.277
-416.727
-376.821
-327.262
-267.932
-198.882
-121.202
-37.0175
42.9398
251.085
262.754
272.827
279.597
282.988
283.021
279.55
272.954
263.26
250.766
235.741
218.208
198.33
176.157
151.702
125.059
96.3408
65.7542
33.6178
0.383413
-33.3271
-66.7161
-98.885
-128.907
-156.181
-180.468
-201.254
-217.646
-228.738
-233.535
-231.247
-221.219
-202.878
-175.758
-139.588
-94.2586
-40.6293
19.7979
77.7395
237.265
221.251
200.436
173.654
143.234
107.862
67.9807
26.4541
-14.491
-54.3391
-92.1434
-126.934
-158.998
-188.705
-216.294
-242.294
-267.138
-291.104
-314.461
-337.349
-359.759
-381.531
-402.374
-421.606
-438.09
-450.693
-458.475
-460.575
-456.212
-444.62
-425.099
-397.054
-360.032
-313.718
-258.012
-193.053
-120.006
-41.259
33.3432
232.286
243.228
252.666
258.983
262.133
262.141
258.879
252.719
243.696
232.105
218.206
202.029
183.738
163.378
140.966
116.584
90.33
62.3806
33.0128
2.6184
-28.2535
-58.8865
-88.4738
-116.168
-141.438
-164.102
-183.708
-199.411
-210.331
-215.506
-214.112
-205.472
-188.987
-164.17
-130.755
-88.7028
-38.9062
16.9106
70.2965
219.316
204.281
184.725
159.538
130.93
97.6546
60.1312
21.0751
-17.3952
-54.788
-90.2022
-122.711
-152.588
-180.183
-205.728
-229.733
-252.619
-274.664
-296.146
-317.225
-337.927
-358.144
-377.635
-395.793
-411.54
-423.782
-431.64
-434.274
-430.917
-420.808
-403.233
-377.571
-343.341
-300.219
-248.108
-187.227
-118.778
-45.2999
24.1855
214.812
225.08
233.932
239.836
242.769
242.76
239.699
233.947
225.549
214.791
201.928
186.997
170.154
151.452
130.902
108.583
84.5774
59.0398
32.2117
4.43799
-23.7973
-51.8536
-78.9992
-104.469
-127.789
-148.832
-167.208
-182.131
-192.756
-198.166
-197.523
-190.135
-175.388
-152.789
-122.066
-83.2335
-37.1966
14.1814
63.2448
202.63
188.504
170.119
146.422
119.505
88.1901
52.874
16.134
-20.0176
-55.1109
-88.2869
-118.665
-146.502
-172.132
-195.774
-217.922
-238.981
-259.232
-278.952
-298.317
-317.384
-336.083
-354.225
-371.271
-386.209
-397.993
-405.798
-408.822
-406.316
-397.533
-381.754
-358.347
-326.809
-286.805
-238.248
-181.403
-117.485
-49.1039
15.5071
198.572
208.216
216.526
222.052
224.79
224.774
221.905
216.538
208.724
198.739
186.831
173.045
157.531
140.342
121.495
101.058
79.1077
55.7782
31.2801
5.91946
-19.874
-45.5245
-70.3746
-93.7269
-115.166
-134.612
-151.735
-165.811
-176.04
-181.557
-181.531
-175.264
-162.139
-141.656
-113.547
-77.8585
-35.4908
11.6397
56.6127
187.122
173.842
156.55
134.245
108.909
79.4309
46.1853
11.6199
-22.355
-55.2896
-86.3681
-114.751
-140.682
-164.481
-186.355
-206.776
-226.139
-244.715
-262.785
-280.537
-298.045
-315.278
-332.094
-348.014
-362.093
-373.338
-380.983
-384.268
-382.469
-374.861
-360.733
-339.447
-310.492
-273.521
-228.449
-175.578
-116.106
-52.6318
7.34148
183.484
192.549
200.358
205.537
208.1
208.084
205.402
200.398
193.129
183.863
172.84
160.107
145.815
130.015
112.724
94.0108
73.9387
52.6293
30.2704
7.13211
-16.4035
-39.817
-62.5148
-83.8673
-103.507
-121.396
-137.264
-150.45
-160.202
-165.718
-166.185
-160.912
-149.289
-130.815
-105.224
-72.5864
-33.7741
9.30596
50.4205
172.715
160.224
143.952
122.949
99.0961
71.34
40.0409
7.51848
-24.4097
-55.3161
-84.4232
-110.937
-135.087
-157.176
-177.405
-196.224
-214.01
-231.031
-247.562
-263.799
-279.835
-295.665
-311.189
-325.985
-339.174
-349.82
-357.219
-360.651
-359.429
-352.856
-340.237
-320.939
-294.444
-260.407
-218.737
-169.751
-114.616
-55.8524
-0.281724
169.47
177.996
185.341
190.204
192.611
192.6
190.099
185.439
178.681
170.084
159.882
148.124
134.956
120.431
104.568
87.4304
69.0792
49.6214
29.2251
8.13035
-13.3201
-34.6591
-55.3486
-74.819
-92.7494
-109.138
-123.766
-136.036
-145.253
-150.676
-151.525
-147.127
-136.884
-120.305
-97.1257
-67.4262
-32.0357
7.19881
44.6831
159.337
147.581
132.262
112.482
90.0187
63.8812
34.4135
3.81458
-26.1865
-55.1845
-82.4401
-107.2
-129.683
-150.178
-168.875
-186.205
-202.528
-218.105
-233.206
-248.028
-262.679
-277.175
-291.453
-305.143
-317.429
-327.437
-334.519
-338.002
-337.243
-331.575
-320.327
-302.879
-278.72
-247.502
-209.132
-163.925
-112.993
-58.7365
-7.33796
156.458
164.483
171.397
175.971
178.237
178.24
175.914
171.579
165.302
157.33
147.89
137.033
124.902
111.55
96.9979
81.3067
64.5321
46.7717
28.175
8.95943
-10.5689
-29.9871
-48.8085
-66.5183
-82.8355
-97.7894
-111.207
-122.554
-131.194
-136.45
-137.583
-133.947
-124.965
-110.162
-89.2748
-62.3846
-30.2683
5.33214
39.4116
146.917
135.85
121.424
102.789
81.6331
57.0188
29.2751
0.491538
-27.6942
-54.8952
-80.4083
-103.522
-124.444
-143.45
-160.722
-176.669
-191.637
-205.875
-219.651
-233.157
-246.51
-259.748
-272.834
-285.445
-296.831
-306.175
-312.887
-316.346
-315.946
-311.063
-301.054
-285.324
-263.37
-234.845
-199.655
-158.099
-111.223
-61.2634
-13.8101
144.381
151.94
158.454
162.762
164.902
164.924
162.767
158.742
152.917
145.53
136.799
126.778
115.606
103.334
89.9868
75.6235
60.2944
44.0894
27.1451
9.65538
-8.10134
-25.7448
-42.8337
-58.9019
-73.7064
-87.2998
-99.5495
-109.984
-118.022
-123.052
-124.383
-121.405
-113.569
-100.417
-81.6939
-57.4731
-28.4655
3.71448
34.6081
135.395
124.971
111.382
93.8251
73.8976
50.7175
24.6011
-2.47127
-28.9436
-54.4492
-78.3209
-99.8877
-119.347
-136.963
-152.908
-167.573
-181.285
-194.287
-206.834
-219.12
-231.264
-243.321
-255.275
-266.848
-277.348
-286.019
-292.321
-295.691
-295.565
-291.359
-282.468
-268.323
-248.438
-222.473
-190.327
-152.281
-109.292
-63.4152
-19.6897
133.177
140.301
146.444
150.508
152.536
152.58
150.588
146.858
141.458
134.618
126.548
117.304
107.018
95.7435
83.5055
70.3614
56.3597
41.5821
26.1534
10.2497
-5.87875
-21.8854
-37.3723
-51.9171
-65.309
-77.6212
-88.7561
-98.298
-105.723
-110.483
-111.941
-109.527
-102.724
-91.0994
-74.4034
-52.6994
-26.627
2.34807
30.2707
124.709
114.888
102.085
85.5422
66.7719
44.9441
20.3634
-5.09189
-29.9473
-53.8526
-76.1787
-96.2908
-114.38
-130.698
-145.409
-158.883
-171.434
-183.294
-194.706
-205.863
-216.885
-227.838
-238.726
-249.305
-258.945
-266.945
-272.814
-276.044
-276.118
-272.493
-264.605
-251.917
-233.965
-210.419
-181.171
-146.472
-107.192
-65.1815
-24.9713
122.788
129.505
135.303
139.143
141.07
141.141
139.309
135.858
130.86
124.533
117.08
108.557
99.0916
88.7384
77.5231
65.5006
52.7174
39.2502
25.2125
10.7641
-3.86734
-18.3681
-32.377
-45.5125
-57.5932
-68.7064
-78.7856
-87.4667
-94.2812
-98.7408
-100.266
-98.3307
-92.4541
-82.2308
-67.4214
-48.0733
-24.7537
1.23283
26.3913
114.805
105.55
93.4854
77.8965
60.2169
39.6653
16.5351
-7.39125
-30.7192
-53.1147
-73.9834
-92.7287
-109.534
-124.638
-138.201
-150.571
-162.049
-172.855
-183.222
-193.336
-203.321
-213.247
-223.134
-232.772
-241.584
-248.926
-254.35
-257.405
-257.617
-254.487
-247.495
-236.141
-219.985
-198.71
-172.203
-140.681
-104.917
-66.5584
-29.6574
113.159
119.497
124.974
128.607
130.444
130.545
128.867
125.681
121.061
115.216
108.339
100.488
91.7839
82.2821
72.0096
61.0191
49.3561
37.0915
24.33
11.217
-2.04042
-15.1567
-27.8059
-39.6429
-50.511
-60.5093
-69.5967
-77.4565
-83.6729
-87.8145
-89.3578
-87.8251
-82.7741
-73.8294
-60.7623
-43.6048
-22.8485
0.362435
22.9569
105.631
96.9068
85.5365
70.8473
54.1963
34.85
13.0909
-9.39121
-31.2749
-52.2443
-71.7391
-89.1987
-104.8
-118.771
-131.265
-142.614
-153.1
-162.934
-172.339
-181.495
-190.522
-199.498
-208.452
-217.204
-225.225
-231.928
-236.908
-239.762
-240.063
-237.354
-231.162
-221.023
-206.527
-187.374
-163.443
-134.917
-102.47
-67.5444
-33.7556
104.239
110.222
115.399
118.842
120.598
120.732
119.202
116.269
112.006
106.613
100.275
93.0479
85.0507
76.3373
66.9345
56.895
46.2615
35.1011
23.5099
11.6218
-0.375894
-12.2227
-23.6237
-34.2676
-44.019
-52.9864
-61.1493
-68.2332
-73.8717
-77.6869
-79.2109
-78.0139
-73.6944
-65.9078
-54.4391
-39.3034
-20.919
-0.272511
19.9506
97.1376
88.9128
78.1962
64.3551
48.6751
30.467
10.0049
-11.111
-31.6295
-51.2527
-69.4515
-85.7018
-100.175
-113.088
-124.587
-134.99
-144.561
-153.501
-162.023
-170.298
-178.446
-186.545
-194.634
-202.556
-209.831
-215.922
-220.463
-223.101
-223.45
-221.099
-215.619
-206.584
-193.616
-176.432
-154.908
-129.189
-99.8559
-68.1485
-37.2801
95.9804
101.63
106.528
109.795
111.48
111.646
110.26
107.567
103.641
98.6725
92.8372
86.1927
78.8518
70.8675
62.2681
53.1042
43.4178
33.2708
22.7528
11.987
1.14366
-9.54052
-19.7979
-29.3486
-38.077
-46.0959
-53.402
-59.7597
-64.8474
-68.3362
-69.8123
-68.8932
-65.2179
-58.474
-48.4608
-35.1777
-18.9741
-0.686249
17.3502
89.2798
81.5245
71.4233
58.3828
43.6197
26.4881
7.25232
-12.5708
-31.7988
-50.1506
-67.1281
-82.242
-95.6573
-107.582
-118.158
-127.683
-136.411
-144.531
-152.243
-159.71
-167.052
-174.344
-181.634
-188.785
-195.36
-200.869
-204.986
-207.402
-207.769
-205.721
-200.872
-192.837
-181.269
-165.903
-146.614
-123.512
-97.0831
-68.3809
-40.248
88.3389
93.6769
98.3129
101.418
103.038
103.239
101.991
99.5253
95.9171
91.3465
85.9817
79.8795
73.1478
65.839
57.9813
49.6244
40.8082
31.5918
22.0579
12.3194
2.53244
-7.08846
-16.301
-24.8535
-32.6474
-39.7977
-46.3154
-51.9985
-56.5674
-59.7367
-61.1444
-60.4528
-57.3418
-51.5307
-42.8335
-31.2365
-17.0248
-0.895251
15.1315
82.0148
74.7013
65.1803
52.8953
38.9988
22.8845
4.80912
-13.791
-31.7993
-48.9503
-64.7767
-78.8222
-91.2469
-102.25
-111.968
-120.683
-128.634
-135.999
-142.97
-149.7
-156.303
-162.858
-169.413
-175.85
-181.772
-186.735
-190.447
-192.639
-193.002
-191.211
-186.922
-179.789
-169.496
-155.8
-138.575
-117.895
-94.1639
-68.2577
-42.683
81.2722
86.3176
90.7089
93.6635
95.2247
95.4613
94.3445
92.0952
88.7864
84.5896
79.6648
74.0677
67.9017
61.2183
54.0461
46.4324
38.4162
30.0539
21.4217
12.6233
3.8012
-4.84901
-13.109
-20.752
-27.6952
-34.0539
-39.8501
-44.9112
-48.9962
-51.8579
-53.1834
-52.6772
-50.0576
-45.0754
-37.5605
-27.4875
-15.0833
-0.919132
13.2674
75.3023
68.4052
59.431
47.86
34.782
19.63
2.65229
-14.791
-31.6465
-47.6646
-62.4061
-75.4484
-86.9454
-97.0891
-106.011
-113.976
-121.212
-127.887
-134.18
-140.238
-146.169
-152.049
-157.93
-163.709
-169.027
-173.48
-176.811
-178.783
-179.127
-177.554
-173.76
-167.438
-158.304
-146.134
-130.802
-112.355
-91.1148
-67.8003
-44.6108
74.7412
79.5114
83.6736
86.4885
87.9965
88.2686
87.2777
85.2327
82.2058
78.3594
73.8456
68.7192
63.0787
56.9743
50.4349
43.506
36.2255
28.6463
20.8395
12.9004
4.95928
-2.80636
-10.1994
-17.0166
-23.1885
-28.8289
-33.9683
-38.46
-42.0971
-44.6674
-45.9024
-45.5457
-43.3521
-39.1023
-32.642
-23.9372
-13.1629
-0.779082
11.728
69.1047
62.5997
54.1418
43.2451
30.9408
16.6988
0.759661
-15.5898
-31.356
-46.3047
-60.0253
-72.1256
-82.7556
-92.0983
-100.281
-107.555
-114.134
-120.177
-125.852
-131.297
-136.615
-141.881
-147.147
-152.324
-157.086
-161.067
-164.041
-165.803
-166.116
-164.73
-161.375
-155.781
-147.694
-136.909
-123.307
-106.905
-87.954
-67.0319
-46.0612
68.7089
73.2205
77.1675
79.8524
81.312
81.6192
80.7483
78.8962
76.1345
72.6165
68.4866
63.7984
58.6457
53.0772
47.1219
40.8237
34.219
27.3578
20.3061
13.1517
6.01366
-0.947387
-7.5534
-13.6225
-19.0971
-24.0882
-28.6328
-32.6066
-35.8328
-38.1305
-39.2711
-39.034
-37.2076
-33.601
-28.0757
-20.5905
-11.277
-0.49786
10.4831
63.3866
57.2513
49.2806
39.0211
27.4482
14.0666
-0.890197
-16.2047
-30.9426
-44.8832
-57.6433
-68.8598
-78.6793
-87.2764
-94.7746
-101.411
-107.387
-112.852
-117.964
-122.852
-127.615
-132.323
-137.03
-141.657
-145.909
-149.457
-152.1
-153.664
-153.941
-152.713
-149.747
-144.803
-137.66
-128.13
-116.097
-101.559
-84.7017
-65.9795
-47.0675
63.141
67.409
71.154
73.7176
75.1328
75.4742
74.7171
73.047
70.5343
67.3239
63.552
59.2716
54.5714
49.4988
44.0825
38.3648
32.3806
26.1771
19.8156
13.3771
6.96979
0.739666
-5.15324
-10.5468
-15.393
-19.7996
-23.8077
-27.3133
-30.1655
-32.2109
-33.2565
-33.1143
-31.603
-28.5579
-23.8559
-17.4515
-9.43907
-0.0985662
9.50128
58.1146
52.3283
44.8175
35.1601
24.2788
11.7112
-2.31654
-16.6539
-30.4208
-43.4115
-55.2685
-65.6571
-74.7193
-82.6235
-89.4879
-95.5374
-100.96
-105.897
-110.497
-114.881
-119.14
-123.344
-127.543
-131.671
-135.458
-138.61
-140.95
-142.33
-142.568