/*--------------------------------*- C++ -*----------------------------------*\
| =========                 |                                                 |
| \\      /  F ield         | OpenFOAM: The Open Source CFD Toolbox           |
|  \\    /   O peration     | Version:  v1806                                 |
|   \\  /    A nd           | Web:      www.OpenFOAM.com                      |
|    \\/     M anipulation  |                                                 |
\*---------------------------------------------------------------------------*/
FoamFile
{
    version     2.0;
    format      ascii;
    class       volScalarField;
    location    "275";
    object      p;
}
// * * * * * * * * * * * * * * * * * * * * * * * * * * * * * * * * * * * * * //

dimensions      [0 2 -2 0 0 0 0];


internalField   nonuniform List<scalar> 
10720
(
75.0211
470.898
877.591
1235.62
1525.82
1743.15
1875.04
1924.84
1919.14
1858.23
1740.15
1585.51
1407.67
1213.16
1009.32
804.38
603.753
414.463
239.743
86.263
-43.4669
-143.904
-216.759
-262.134
-289.17
-314.065
-336.593
-347.843
-347.812
-337.866
-318.282
-289.526
-252.055
-205.983
-151.158
-84.6569
-2.99769
118.144
298.58
-360.289
-801.846
-1349.25
-1938.1
-2521.69
-3091.13
-3594.4
-3939.97
-4096.72
-4137.81
-4079.84
-3927.54
-3730.43
-3517.24
-3296.24
-3087.69
-2890.65
-2710.4
-2549.51
-2415.62
-2307.02
-2221.83
-2152.25
-2088.97
-2008.21
-1900.82
-1782.11
-1657.19
-1525.92
-1387.99
-1244.53
-1096.47
-944.265
-787.159
-624.117
-450.138
-261.331
-29.008
233.196
535.327
812.208
1081.35
1330.41
1542.48
1709.99
1821.41
1873.53
1872.42
1819.46
1720.25
1586.95
1428.84
1252.25
1063.86
870.94
679.349
495.335
323.25
168.906
35.8836
-71.19
-152.488
-208.436
-246.232
-278.536
-306.03
-321.803
-325.709
-319.216
-302.747
-276.749
-241.673
-197.623
-144.424
-79.1733
1.52111
122.121
296.146
245.603
-79.2342
-455.621
-872.885
-1311.2
-1755.57
-2173.16
-2529.19
-2802
-2986.99
-3080.82
-3103.39
-3082.22
-3028.52
-2944.12
-2839.11
-2717.75
-2590
-2465.24
-2354.03
-2258.8
-2180.14
-2112.9
-2049.14
-1970.01
-1867.4
-1753.2
-1632.39
-1504.97
-1370.65
-1230.45
-1085.25
-935.443
-780.313
-618.835
-446.069
-258.239
-26.318
230.663
599.906
850.928
1092.89
1313.18
1498.75
1645.83
1745.98
1797.5
1802.93
1762.45
1680.07
1563.18
1419.39
1255.27
1077.32
892.346
706.62
526.229
356.272
202.16
68.0507
-41.9633
-127.075
-187.938
-230.166
-264.155
-292.147
-309.05
-314.254
-309.046
-293.886
-269.139
-235.214
-192.189
-139.839
-75.2635
4.91458
124.647
292.841
341.837
57.6865
-269.109
-643.138
-1042.47
-1453.27
-1855.15
-2218.72
-2510.01
-2714.58
-2841.65
-2902.4
-2909.44
-2874
-2805.22
-2714.05
-2608.86
-2498.17
-2389.56
-2290.46
-2203.9
-2130.54
-2066.46
-2004.7
-1930.3
-1834.9
-1726.67
-1610.65
-1487.23
-1356.3
-1218.91
-1076.03
-928.104
-774.523
-614.277
-442.504
-255.507
-24.6061
228.73
683.855
890.08
1091.4
1277.62
1436.48
1565.71
1657.05
1708.26
1719.66
1690.29
1623.09
1523.05
1396.13
1248.08
1084.72
912.237
736.643
563.823
399.087
247.668
114.005
2.01794
-86.8069
-152.93
-200.695
-238.579
-269.443
-289.457
-297.593
-294.981
-282.148
-259.439
-227.263
-185.704
-134.534
-70.8913
8.51486
126.898
289.368
471.482
237.103
-36.4144
-349.023
-684.622
-1035.8
-1385.78
-1709.67
-1986.36
-2205.96
-2371.89
-2484.18
-2546.79
-2566.45
-2550.46
-2506.8
-2443.26
-2367.41
-2286.59
-2207.88
-2135.64
-2071.37
-2012.71
-1954.12
-1884.29
-1795.65
-1693.6
-1582.99
-1464.41
-1337.8
-1204.13
-1064.39
-919.043
-767.557
-608.973
-438.553
-252.744
-23.5253
226.059
699.902
881.249
1059.02
1223.2
1363.48
1479.19
1563.31
1613.76
1629.79
1610.05
1556.4
1471.95
1361.13
1228.66
1079.62
919.6
754.28
589.351
430.212
282.009
149.407
36.2897
-55.3632
-125.668
-177.927
-218.9
-251.705
-273.689
-283.721
-282.82
-271.595
-250.386
-219.578
-179.241
-129.115
-66.3593
12.2151
129.047
285.576
512.735
307.734
68.1182
-207.687
-504.645
-819.077
-1138.46
-1442.33
-1713.58
-1942.17
-2123.55
-2255.27
-2339.95
-2383.49
-2392.44
-2372.98
-2331.7
-2275.28
-2210.46
-2143.7
-2079.67
-2020.33
-1964.34
-1907.26
-1840.39
-1757
-1660.23
-1554.37
-1440.19
-1317.68
-1187.7
-1051.18
-908.613
-759.478
-602.835
-434.073
-249.812
-22.8317
222.027
700.387
859.424
1016.51
1162.14
1287.03
1391.42
1469.32
1518.59
1537.85
1525.96
1483.76
1413.18
1317.41
1200.16
1065.72
918.956
765.1
609.492
457.421
313.967
183.822
70.8939
-22.4642
-95.9623
-152.026
-195.979
-230.905
-255.092
-267.419
-268.696
-259.52
-240.203
-211.084
-172.218
-123.326
-61.614
15.9746
130.953
281.376
536.292
357.232
146.805
-96.1106
-357.86
-637.209
-923.974
-1200.1
-1451.45
-1669.88
-1850.17
-1991.4
-2094.63
-2162.37
-2198.08
-2205.69
-2190.19
-2157.13
-2112.42
-2061.86
-2010.05
-1959.31
-1909.15
-1856.25
-1794.02
-1716.66
-1625.74
-1524.95
-1415.3
-1296.9
-1170.58
-1037.28
-897.491
-750.764
-596.184
-429.269
-246.854
-22.6986
216.637
684.429
826.416
967.37
1098.17
1210.51
1305.39
1377.78
1425.44
1446.87
1441.14
1408.46
1349.91
1267.73
1164.7
1044.3
910.706
768.551
622.775
478.454
340.526
213.644
101.748
7.48028
-68.4463
-127.7
-174.368
-211.299
-237.507
-251.93
-255.178
-247.838
-230.226
-202.66
-165.177
-117.48
-56.8248
19.6992
132.558
276.811
537.812
378.44
190.674
-26.7977
-261.15
-512.67
-773.217
-1026.79
-1261.42
-1470.77
-1649.99
-1796.33
-1909.49
-1990.59
-2042.04
-2067.03
-2069.51
-2053.83
-2024.82
-1987.37
-1945.65
-1902.1
-1856.84
-1807.47
-1749.08
-1676.82
-1591.2
-1495.21
-1389.96
-1275.62
-1152.96
-1022.88
-885.903
-741.631
-589.188
-424.264
-243.96
-23.2049
209.978
660.899
788.555
915.922
1034.25
1135.99
1222.72
1290.08
1335.83
1358.57
1357.58
1332.65
1284.35
1214.18
1124.16
1017.02
896.243
765.849
630.32
494.398
362.793
240.069
130.168
35.9277
-41.5457
-103.254
-152.258
-191.048
-219.147
-235.604
-240.846
-235.418
-219.618
-193.721
-157.737
-111.348
-51.8749
23.4306
133.872
271.923
529.026
386.184
217.445
21.5492
-189.498
-416.91
-653.944
-886.118
-1103.09
-1299.81
-1471.74
-1615.92
-1732.4
-1821.88
-1885.58
-1925.4
-1943.96
-1944.34
-1930.28
-1905.79
-1874.57
-1839.01
-1799.68
-1754.94
-1701.21
-1634.52
-1554.62
-1463.82
-1363.3
-1253.3
-1134.52
-1007.85
-873.833
-732.126
-581.926
-419.12
-241.155
-24.3031
202.174
632.427
748.14
864.048
971.811
1064.48
1144.13
1206.87
1250.5
1273.97
1276.52
1257.87
1218.2
1158.49
1080.16
985.283
876.688
757.808
632.603
505.409
380.657
262.76
155.615
62.1883
-16.0661
-79.5778
-130.55
-171.038
-200.89
-219.276
-226.447
-222.881
-208.855
-184.609
-150.128
-105.077
-46.8553
27.1111
134.868
266.705
512.836
383.668
230.789
52.9228
-138.558
-345.562
-562.362
-775.812
-976.686
-1161.04
-1324.91
-1465.45
-1582.6
-1676.61
-1748
-1797.94
-1828.25
-1841.12
-1839.37
-1826.09
-1804.37
-1776.38
-1742.86
-1702.79
-1653.56
-1592.03
-1517.54
-1431.78
-1335.89
-1230.21
-1115.36
-992.198
-861.252
-722.238
-574.411
-413.869
-238.434
-25.9092
193.433
601.527
707.026
813.068
911.698
996.524
1069.97
1128.44
1169.88
1193.56
1198.75
1185.12
1152.66
1101.97
1034.01
950.296
853.102
745.276
630.256
511.939
394.439
281.933
178.226
86.3662
8.08462
-56.5646
-109.072
-151.038
-182.471
-202.654
-211.687
-209.964
-197.721
-175.162
-142.24
-98.5991
-41.7325
30.7482
135.55
261.173
492.431
374.927
235.6
73.2029
-101.475
-290.766
-489.797
-686.395
-872.279
-1044.33
-1199.08
-1333.81
-1448.61
-1543.76
-1619.53
-1676.54
-1715.93
-1739.09
-1747.95
-1744.78
-1731.99
-1711.44
-1683.93
-1648.86
-1604.4
-1548.11
-1479.08
-1398.47
-1307.36
-1206.13
-1095.35
-975.825
-848.092
-711.918
-566.619
-408.52
-235.796
-27.9706
183.993
569.544
666.23
763.706
854.367
932.326
1000.27
1054.8
1094.06
1117.57
1124.68
1115.06
1088.59
1045.61
986.751
913.098
826.418
729.036
623.891
514.43
404.398
297.69
197.982
108.337
30.7071
-34.4577
-88.0633
-131.26
-164.096
-185.936
-196.744
-196.818
-186.338
-165.47
-134.134
-91.9575
-36.5358
34.3183
135.92
255.346
469.509
362.017
234.381
85.3458
-74.8125
-248.698
-432.086
-613.683
-785.949
-946.391
-1091.95
-1220.18
-1331.34
-1425.71
-1503.45
-1564.9
-1610.71
-1641.7
-1659.13
-1664.54
-1659.71
-1646.09
-1624.44
-1594.41
-1554.72
-1503.51
-1439.79
-1364.3
-1277.96
-1181.2
-1074.56
-958.775
-834.374
-701.171
-558.55
-403.08
-233.265
-30.4723
174.018
537.432
626.413
716.366
800.002
871.923
934.923
985.818
1022.95
1046.04
1054.5
1048.06
1026.55
990.15
939.232
874.552
797.465
709.833
614.125
513.338
410.835
310.21
214.955
128.097
51.7367
-13.3545
-67.6091
-111.757
-145.791
-169.126
-181.604
-183.421
-174.682
-155.513
-125.798
-85.1461
-31.2691
37.8124
135.979
249.25
445.301
346.53
229.081
91.7475
-55.7251
-216.065
-385.567
-553.733
-713.584
-863.132
-999.675
-1120.99
-1227.48
-1319.53
-1397.31
-1461.09
-1511.19
-1548.01
-1572.28
-1584.94
-1587.16
-1580
-1564.04
-1539.06
-1504.19
-1458
-1399.52
-1329.12
-1247.6
-1155.39
-1052.98
-941.037
-820.09
-689.998
-550.21
-397.562
-230.869
-33.4124
163.57
505.77
587.974
671.251
748.648
815.213
873.757
921.288
956.366
978.86
988.256
984.335
966.93
936.111
892.086
835.36
766.952
688.323
601.518
509.111
414.078
319.69
229.225
145.626
71.0825
6.61277
-47.8445
-92.6436
-127.657
-152.312
-166.341
-169.83
-162.797
-145.323
-117.254
-78.1833
-25.9483
41.2178
135.74
242.908
420.624
329.488
221.02
93.9964
-42.2835
-190.658
-347.797
-503.876
-652.458
-791.905
-919.822
-1034.17
-1135.52
-1224.36
-1300.89
-1365.4
-1418.06
-1458.94
-1488.42
-1506.97
-1515.25
-1513.9
-1503.3
-1483.25
-1453.12
-1411.83
-1358.44
-1293.08
-1216.37
-1128.73
-1030.61
-922.613
-805.243
-678.399
-541.607
-391.975
-228.633
-36.7971
152.679
474.953
551.146
628.455
700.274
762.052
816.562
860.993
894.112
915.897
925.9
923.966
909.945
883.858
845.801
796.088
735.471
665.084
586.597
502.19
414.468
326.364
240.922
160.961
88.708
25.3568
-28.873
-74.0103
-109.77
-135.556
-150.998
-156.075
-150.704
-134.915
-108.515
-71.0809
-20.5854
44.5211
135.213
236.35
396.008
311.649
211.125
93.2812
-33.0668
-170.767
-316.817
-462.017
-600.345
-730.478
-850.229
-957.753
-1053.72
-1138.75
-1213.08
-1277.08
-1330.88
-1374.37
-1407.64
-1430.83
-1444.2
-1447.99
-1442.37
-1427.07
-1401.57
-1365.04
-1316.61
-1256.21
-1184.29
-1101.25
-1007.47
-903.51
-789.83
-666.376
-532.743
-386.329
-226.569
-40.6094
141.383
445.229
516.036
587.986
654.789
712.269
763.113
804.684
835.95
856.945
867.3
866.933
855.714
833.639
800.736
757.18
703.525
640.634
569.852
493.001
412.334
330.467
250.186
174.153
104.588
42.7958
-10.7976
-55.9526
-92.2132
-118.931
-135.638
-142.203
-138.441
-124.317
-99.6016
-63.8557
-15.1951
47.7133
134.411
229.608
371.822
293.505
200.09
90.4535
-27.0067
-155.136
-291.206
-426.551
-555.554
-677.089
-789.185
-890.132
-980.704
-1061.6
-1133.13
-1195.73
-1249.55
-1294.44
-1330.29
-1357
-1374.49
-1382.73
-1381.61
-1370.78
-1349.73
-1317.78
-1274.13
-1218.58
-1151.42
-1072.97
-983.588
-883.736
-773.86
-653.931
-523.623
-380.628
-224.68
-44.832
129.731
416.735
482.692
549.809
612.083
665.679
713.173
752.112
781.624
801.791
812.316
813.178
804.277
785.601
757.143
718.99
671.53
615.414
551.715
481.94
408.018
332.254
257.179
185.278
118.72
58.8671
6.28786
-38.5667
-75.074
-102.513
-120.324
-128.262
-126.044
-113.557
-90.5347
-56.5256
-9.79236
50.7835
133.355
222.713
348.317
275.419
188.389
86.1469
-23.319
-142.816
-269.857
-396.251
-516.737
-630.356
-735.305
-829.99
-915.254
-991.862
-1060.2
-1120.76
-1173.79
-1219.09
-1256.48
-1285.68
-1306.42
-1318.39
-1321.28
-1314.57
-1297.73
-1270.17
-1231.13
-1180.3
-1117.82
-1043.95
-958.982
-863.31
-757.339
-641.071
-514.253
-374.876
-222.966
-49.4267
117.773
389.553
451.131
513.864
572.026
622.093
666.524
703.042
730.892
750.217
760.778
762.595
755.611
739.823
715.201
681.773
639.81
589.789
532.562
469.365
401.835
331.981
262.082
194.438
131.134
73.5442
22.3207
-21.9292
-58.4291
-86.3753
-105.119
-114.305
-113.554
-102.667
-81.3403
-49.1112
-4.39286
53.7253
132.062
215.7
325.651
257.64
176.382
80.8366
-21.4076
-133.074
-251.903
-370.147
-482.833
-589.163
-687.45
-776.212
-856.337
-928.643
-993.555
-1051.67
-1103.27
-1148.21
-1186.29
-1217.12
-1240.28
-1255.29
-1261.64
-1258.68
-1245.79
-1222.36
-1187.72
-1141.45
-1083.57
-1014.24
-933.691
-842.253
-740.283
-627.805
-504.639
-369.08
-221.422
-54.3543
105.561
363.72
421.321
480.045
534.475
581.314
622.946
657.231
683.522
702.007
712.498
715.057
709.668
696.332
675.022
645.724
608.625
564.072
512.731
455.609
394.087
329.9
265.084
201.752
141.875
86.8083
37.2389
-6.1188
-42.3593
-70.5947
-90.0921
-100.388
-101.018
-91.6842
-72.047
-41.6355
0.988117
56.5316
130.558
208.608
303.922
240.345
164.327
74.8737
-20.8037
-125.347
-236.673
-347.451
-452.992
-552.591
-644.682
-727.871
-803.079
-871.146
-932.542
-987.934
-1037.66
-1081.65
-1119.71
-1151.43
-1176.29
-1193.68
-1202.96
-1203.33
-1194.05
-1174.51
-1144.03
-1102.15
-1048.75
-983.898
-907.761
-820.597
-722.71
-614.144
-494.791
-363.24
-220.044
-59.5663
93.1613
339.24
393.209
448.272
499.286
543.182
582.232
614.459
639.285
656.952
667.297
670.427
666.361
655.116
636.665
610.98
578.182
538.52
492.511
440.971
385.053
326.254
266.379
207.346
151.006
98.6632
51.0021
8.80123
-26.9359
-55.2435
-75.3107
-86.5707
-88.4831
-80.6479
-62.6864
-34.1223
6.33338
59.1981
128.867
201.474
283.186
223.649
152.414
68.5227
-21.1512
-119.184
-223.632
-327.556
-426.517
-519.893
-606.22
-684.186
-754.719
-818.669
-876.545
-929.064
-976.627
-1019.23
-1056.72
-1088.7
-1114.61
-1133.79
-1145.46
-1148.72
-1142.71
-1126.77
-1100.2
-1062.5
-1013.44
-952.995
-881.242
-798.375
-704.645
-600.105
-484.716
-357.358
-218.819
-65.0159
80.6367
316.094
366.74
418.444
466.33
507.521
544.197
574.518
597.979
614.846
624.993
628.556
625.592
616.131
600.157
577.632
548.636
513.339
472.145
425.707
374.991
321.275
266.153
211.355
158.604
109.131
63.5886
22.7794
-12.2248
-40.3921
-60.8433
-72.9162
-76.0034
-69.6014
-53.2932
-26.5987
11.6267
61.7222
127.015
194.336
263.474
207.632
140.777
61.9866
-22.1866
-114.235
-212.356
-309.964
-402.85
-490.467
-571.437
-644.51
-710.607
-770.601
-825.012
-874.598
-919.809
-960.702
-997.194
-1028.94
-1055.37
-1075.77
-1089.33
-1095.05
-1091.95
-1079.29
-1056.37
-1022.64
-977.761
-921.61
-854.195
-775.631
-686.115
-585.706
-474.426
-351.434
-217.732
-70.6501
68.0503
294.258
341.847
390.46
435.469
474.173
508.659
537.22
559.403
575.498
585.41
589.303
587.258
579.323
565.495
545.735
520.096
488.692
451.834
410.049
364.136
315.186
264.598
213.929
164.764
118.25
74.99
35.7758
1.7155
-26.1065
-46.7569
-59.4876
-63.633
-58.5907
-43.9046
-19.0926
16.8516
64.1037
125.032
187.236
244.792
192.343
129.513
55.4198
-23.692
-110.232
-202.511
-294.286
-381.554
-463.822
-539.798
-608.298
-670.219
-726.433
-777.474
-824.122
-866.879
-905.856
-941.036
-972.133
-998.617
-1019.77
-1034.75
-1042.5
-1041.94
-1032.24
-1012.69
-982.684
-941.804
-889.83
-826.686
-752.414
-667.156
-570.969
-463.931
-345.466
-216.763
-76.4124
55.4703
273.689
318.46
364.222
406.578
442.987
475.453
502.384
523.371
538.723
548.378
552.515
551.24
544.614
532.65
515.315
492.641
464.707
431.75
394.191
352.693
308.186
261.895
215.212
169.588
126.075
85.2144
47.7635
14.8378
-12.4473
-33.1161
-46.3485
-51.4287
-47.6641
-34.5605
-11.6338
21.9909
66.3428
122.946
180.213
227.132
177.809
118.692
48.9362
-25.5021
-106.953
-193.826
-280.188
-362.244
-439.541
-510.867
-575.084
-633.074
-685.693
-733.486
-777.248
-817.509
-854.442
-888.095
-918.232
-944.389
-965.872
-981.846
-991.217
-992.825
-985.769
-969.298
-942.766
-905.687
-857.747
-798.789
-728.781
-647.806
-555.919
-453.244
-339.448
-215.888
-82.2482
42.9676
254.34
296.512
339.632
379.536
413.83
444.422
469.843
489.713
504.36
513.739
518.052
517.422
511.924
501.584
486.377
466.326
441.481
412.025
378.296
340.844
300.46
258.215
215.348
173.18
132.668
94.2838
58.7298
27.1035
0.530505
-19.9833
-33.5616
-39.4486
-36.8734
-25.3027
-4.25336
27.0285
68.4418
120.785
173.305
210.477
164.039
108.354
42.6199
-27.4939
-104.228
-186.078
-267.41
-344.61
-417.282
-484.263
-544.473
-598.771
-647.996
-692.68
-733.632
-771.411
-806.235
-838.208
-867.157
-892.682
-914.149
-930.738
-941.352
-944.771
-940.025
-926.333
-903.021
-869.528
-825.462
-770.586
-704.794
-628.111
-540.585
-442.377
-333.376
-215.078
-88.0979
30.6082
236.164
275.927
316.599
354.231
386.565
415.425
439.442
458.269
472.244
481.345
485.78
485.692
481.164
472.242
458.906
441.177
419.085
392.77
362.507
328.753
292.177
253.72
214.478
175.651
138.104
102.232
68.6724
38.4831
12.7801
-7.41636
-21.1874
-27.7514
-26.2703
-16.175
3.01712
31.9472
70.405
118.578
166.55
194.799
151.035
98.5335
36.5307
-29.569
-101.914
-179.088
-255.729
-328.412
-396.764
-459.684
-516.141
-566.971
-612.986
-654.716
-692.966
-728.308
-761.002
-791.205
-818.806
-843.463
-864.618
-881.496
-893.007
-897.895
-895.142
-883.934
-863.576
-833.447
-793.079
-742.162
-680.522
-608.121
-524.996
-431.345
-327.243
-214.3
-93.9028
18.4625
219.111
256.635
295.035
330.555
361.07
388.326
411.036
428.888
442.23
451.048
455.564
455.931
452.246
444.565
432.879
417.206
397.566
374.07
346.939
316.554
283.486
248.554
212.737
177.115
142.466
109.108
77.605
48.9615
24.2655
4.53552
-9.28513
-16.3938
-15.9071
-7.22065
10.1451
36.732
72.2363
116.351
159.983
180.067
138.785
89.2437
30.7178
-31.6453
-99.8988
-172.711
-244.977
-313.437
-377.747
-436.866
-489.809
-537.383
-580.371
-619.297
-654.964
-687.944
-718.531
-746.918
-773.062
-796.686
-817.293
-834.177
-846.272
-852.316
-851.246
-842.236
-824.559
-797.562
-760.707
-713.609
-656.033
-587.89
-509.192
-420.158
-321.041
-213.522
-99.6042
6.59718
203.129
238.569
274.855
308.411
337.236
363.001
384.494
401.437
414.179
422.717
427.282
428.032
425.078
418.486
408.256
394.408
376.956
355.988
331.685
304.363
274.514
242.853
210.25
177.68
145.833
114.96
85.5448
58.5297
34.9566
15.8267
2.091
-5.43258
-5.83646
1.51467
17.0988
41.3654
73.9422
114.132
153.637
166.248
127.275
80.4909
25.2111
-33.666
-98.0997
-166.829
-235.001
-299.507
-360.033
-415.587
-465.235
-509.754
-549.898
-586.177
-619.381
-650.09
-678.613
-705.183
-729.807
-752.276
-772.148
-788.803
-801.216
-808.125
-808.449
-801.357
-786.101
-761.995
-728.45
-685.023
-631.411
-567.474
-493.205
-408.838
-314.757
-212.706
-105.144
-4.92169
188.166
221.665
255.975
287.704
314.955
339.332
359.694
375.786
387.96
396.224
400.811
401.888
399.57
393.936
384.994
372.768
357.268
338.57
316.816
292.277
265.375
236.739
207.138
177.451
148.295
119.848
92.5257
67.1906
44.8331
26.4195
12.8937
5.08017
3.89063
9.98835
23.8439
45.8325
75.5271
111.94
147.539
153.302
116.484
72.2761
20.0277
-35.5872
-96.4468
-161.35
-225.68
-286.479
-343.454
-395.663
-442.218
-483.866
-521.335
-555.123
-585.994
-614.53
-641.058
-665.833
-688.915
-710.143
-729.147
-745.385
-757.882
-765.399
-766.852
-761.407
-748.315
-726.865
-696.426
-656.5
-606.734
-546.935
-477.075
-397.397
-308.385
-211.814
-110.47
-16.0317
174.17
205.853
238.322
268.344
294.127
317.212
336.519
351.819
363.457
371.453
376.042
377.396
375.634
370.845
363.046
352.262
338.508
321.844
302.391
280.378
256.168
230.316
203.507
176.533
149.935
123.839
98.5845
74.9578
53.8826
36.2832
23.08
15.0945
13.225
18.156
30.3505
50.1175
76.9953
109.798
141.713
141.193
106.389
64.5896
15.1833
-37.377
-94.886
-156.195
-216.916
-274.231
-327.87
-376.938
-420.588
-459.541
-494.494
-525.935
-554.606
-581.079
-605.691
-628.721
-650.26
-670.204
-688.248
-703.913
-716.302
-724.201
-726.537
-722.49
-711.312
-692.281
-664.736
-628.141
-582.085
-526.338
-460.848
-385.85
-301.915
-210.812
-115.523
-26.6729
161.093
191.077
221.822
250.248
274.663
296.542
314.864
329.421
340.555
348.293
352.866
354.457
353.183
349.141
342.357
332.861
320.668
305.83
288.452
268.727
246.974
223.678
199.455
175.015
150.837
126.996
103.765
81.8491
62.1026
45.3952
32.613
24.565
22.1215
25.9769
36.587
54.2061
78.3547
107.722
136.18
129.882
96.9627
57.4214
10.6832
-39.011
-93.3709
-151.302
-208.625
-262.662
-313.163
-359.274
-400.197
-436.62
-469.214
-498.446
-525.043
-549.562
-572.348
-593.692
-613.716
-632.362
-649.382
-664.359
-676.479
-684.566
-687.57
-684.689
-675.193
-658.352
-633.49
-600.036
-557.549
-505.749
-444.563
-374.22
-295.337
-209.655
-120.257
-36.7911
148.884
177.277
206.406
233.34
256.474
277.226
294.628
308.489
319.149
326.638
331.185
332.976
332.132
328.752
322.872
314.527
303.732
290.535
275.026
257.375
237.858
216.908
195.07
172.988
151.084
129.39
108.117
87.8938
69.499
53.7431
41.4661
33.4535
30.5378
33.4134
42.5248
58.084
79.6064
105.727
130.955
119.33
88.1793
50.7571
6.52564
-40.4746
-91.8707
-146.621
-200.74
-251.69
-299.232
-342.561
-380.918
-414.961
-445.343
-472.505
-497.153
-519.831
-540.882
-560.611
-579.164
-596.518
-612.477
-626.686
-638.411
-646.522
-650.004
-648.079
-640.043
-625.173
-602.785
-572.287
-533.205
-485.234
-428.267
-362.522
-288.641
-208.314
-124.623
-46.3388
137.498
164.396
192.01
217.545
239.48
259.179
275.72
288.93
299.144
306.394
310.906
312.866
312.4
309.609
304.536
297.22
287.68
275.957
262.135
246.361
228.878
210.071
190.43
170.532
150.751
131.086
111.692
93.1236
76.0848
61.32
49.6166
41.7265
38.4368
40.4295
48.1372
61.7372
80.7543
103.823
126.046
109.501
80.0094
44.5804
2.708
-41.7558
-90.3604
-142.108
-193.209
-241.245
-285.998
-326.702
-362.643
-394.453
-422.754
-447.976
-470.796
-491.745
-511.16
-529.353
-546.488
-562.575
-577.464
-590.852
-602.084
-610.084
-613.876
-612.722
-605.943
-592.833
-572.714
-544.981
-509.14
-464.856
-412.006
-350.778
-281.82
-206.753
-128.581
-55.2724
126.888
152.383
178.572
202.795
223.607
242.318
258.054
270.654
280.447
287.467
291.937
294.043
293.911
291.644
287.293
280.898
272.484
262.089
249.789
235.713
220.078
203.227
185.6
167.718
149.911
132.15
114.544
97.5778
81.8795
68.1282
57.0509
49.359
45.7868
46.9949
53.3997
65.1528
81.7998
102.016
121.457
100.356
72.4249
38.8711
-0.776011
-42.85
-88.8209
-137.734
-185.984
-231.268
-273.388
-311.618
-345.285
-374.995
-401.344
-424.747
-445.856
-465.181
-483.059
-499.799
-515.58
-530.438
-544.261
-556.799
-567.466
-575.246
-579.213
-578.666
-572.959
-561.414
-543.364
-518.204
-485.429
-444.684
-395.822
-339.009
-274.871
-204.941
-132.09
-63.5537
117.011
141.186
166.034
189.025
208.783
226.567
241.548
253.576
262.973
269.773
274.196
276.426
276.589
274.791
271.085
265.518
258.115
248.917
237.989
225.45
211.491
196.422
180.638
164.609
148.629
132.645
116.728
101.296
86.9094
74.1765
63.7634
56.3326
52.5627
53.083
58.2909
68.3196
82.7425
100.311
117.189
91.8581
65.3972
33.6108
-3.93756
-43.7559
-87.2394
-133.475
-179.026
-221.712
-261.347
-297.242
-328.765
-356.5
-381.019
-402.718
-422.226
-440.033
-456.467
-471.841
-486.338
-500.015
-512.797
-524.473
-534.524
-542
-546.024
-545.942
-541.144
-530.983
-514.814
-492.036
-462.148
-424.779
-379.763
-327.236
-267.79
-202.856
-135.123
-71.1537
107.825
130.755
154.341
176.172
194.94
211.856
226.127
237.618
246.64
253.231
257.603
259.939
260.363
258.983
255.857
251.035
244.542
236.421
226.731
215.581
203.144
189.697
175.594
161.264
146.965
132.63
118.296
104.324
91.2045
79.4809
69.7551
62.6368
58.7456
58.6725
62.7928
71.2259
83.5814
98.7062
113.234
83.9727
58.8971
28.7788
-6.78749
-44.475
-85.6077
-129.308
-172.309
-212.536
-249.82
-283.509
-313.013
-338.89
-361.691
-381.798
-399.811
-416.199
-431.287
-445.378
-458.664
-471.215
-482.987
-493.808
-503.213
-510.326
-514.315
-514.574
-510.539
-501.595
-487.126
-466.55
-439.367
-405.203
-363.872
-315.483
-260.583
-200.477
-137.651
-78.0528
99.2895
121.047
143.442
164.181
182.018
198.117
211.722
222.707
231.377
237.767
242.084
244.511
245.167
244.161
241.556
237.402
231.729
224.578
216.007
206.114
195.054
183.079
170.509
157.731
144.974
132.16
119.302
106.705
94.799
84.0629
75.0345
68.2679
64.3232
63.7472
66.8909
73.8628
84.3125
97.1973
109.582
76.6649
52.8969
24.3537
-9.33801
-45.0106
-83.919
-125.221
-165.805
-203.706
-238.766
-270.374
-297.974
-322.106
-343.297
-361.914
-378.529
-393.597
-407.429
-420.321
-432.47
-443.957
-454.76
-464.743
-473.488
-480.194
-484.076
-484.576
-481.173
-473.297
-460.361
-441.807
-417.148
-386.009
-348.193
-303.775
-253.246
-197.791
-139.658
-84.2331
91.3666
112.017
133.288
152.997
169.957
185.287
198.266
208.775
217.112
223.309
227.571
230.073
230.933
230.264
228.127
224.575
219.639
213.364
205.803
197.046
187.234
176.594
165.417
154.052
142.704
131.289
119.796
108.487
97.7309
87.9489
79.616
73.2299
69.2906
68.2974
70.5744
76.2222
84.9315
95.7777
106.219
69.9015
47.3684
20.3146
-11.604
-45.3699
-82.1723
-121.201
-159.496
-195.195
-228.152
-257.794
-283.6
-306.091
-325.772
-342.997
-358.31
-372.149
-384.813
-396.589
-407.675
-418.159
-428.041
-437.212
-445.299
-451.568
-455.289
-455.947
-453.067
-446.123
-434.564
-417.861
-395.546
-367.249
-332.764
-292.135
-245.791
-194.787
-141.133
-89.6873
84.0195
103.623
123.833
142.57
158.704
173.31
185.698
195.759
203.779
209.793
213.996
216.561
217.604
217.235
215.518
212.508
208.239
202.754
196.103
188.373
179.689
170.259
160.345
150.264
140.199
130.062
119.827
109.713
100.039
91.1698
83.5207
77.5333
73.6495
72.3188
73.8369
78.2976
85.4335
94.4374
103.125
63.6505
42.2852
16.6401
-13.599
-45.5597
-80.3661
-117.241
-153.367
-186.981
-217.948
-245.732
-269.847
-290.797
-309.063
-324.987
-339.089
-351.785
-363.365
-374.105
-384.2
-393.747
-402.758
-411.151
-418.592
-424.409
-427.928
-428.678
-426.228
-420.096
-409.77
-394.757
-374.61
-348.969
-317.624
-280.588
-238.227
-191.465
-142.068
-94.4144
77.2125
95.8269
115.033
132.852
148.206
162.128
173.96
183.596
191.317
197.155
201.298
203.916
205.12
205.02
203.682
201.16
197.492
192.718
186.89
180.086
172.423
164.086
155.316
146.398
137.497
128.524
119.44
110.43
101.766
93.7601
86.7742
81.1946
77.4076
75.8128
76.6758
80.0845
85.8118
93.1644
100.28
57.8816
37.6204
13.3102
-15.338
-45.5882
-78.5037
-113.335
-147.406
-179.045
-208.13
-234.158
-256.679
-276.18
-293.122
-307.831
-320.807
-332.443
-343.018
-352.799
-361.975
-370.65
-378.843
-386.496
-393.311
-398.675
-401.965
-402.753
-400.654
-395.229
-386.006
-372.53
-354.379
-331.209
-302.807
-269.161
-230.57
-187.828
-142.469
-98.4214
70.9124
88.5906
106.846
123.797
138.415
151.69
162.997
172.232
179.67
185.339
189.421
192.08
193.427
193.568
192.57
190.488
187.36
183.229
178.143
172.175
165.432
158.083
150.347
142.48
134.631
126.713
118.679
110.681
102.952
95.7567
89.4066
84.2361
80.5791
78.786
79.0927
81.5806
86.0601
91.9445
97.6597
52.5644
33.3494
10.3031
-16.8359
-45.4648
-76.5864
-109.481
-141.603
-171.371
-198.676
-223.045
-244.067
-262.205
-277.907
-291.484
-303.412
-314.066
-323.713
-332.608
-340.935
-348.799
-356.23
-363.187
-369.402
-374.318
-377.361
-378.149
-376.336
-371.524
-363.287
-351.205
-334.885
-314.003
-288.347
-257.877
-222.835
-183.888
-142.343
-101.719
65.0878
81.8788
99.2343
115.364
129.285
141.949
152.759
161.615
168.782
174.289
178.307
181
182.472
182.828
182.135
180.449
177.81
174.257
169.84
164.625
158.713
152.255
145.45
138.531
131.63
124.665
117.582
110.508
103.638
97.1983
91.4513
86.6845
83.1831
81.2504
81.0931
82.7855
86.1719
90.7626
95.2397
47.6712
29.447
7.59936
-18.1089
-45.1996
-74.6203
-105.677
-135.95
-163.947
-189.567
-212.371
-231.98
-248.841
-263.382
-275.905
-286.86
-296.606
-305.395
-313.473
-321.018
-328.133
-334.857
-341.161
-346.806
-351.286
-354.078
-354.837
-353.255
-348.978
-341.62
-330.798
-316.153
-297.38
-274.268
-246.762
-215.041
-179.657
-141.706
-104.328
59.708
75.6583
92.1605
107.512
120.773
132.859
143.197
151.694
158.604
163.954
167.909
170.626
172.207
172.755
172.336
171.006
168.805
165.774
161.959
157.423
152.258
146.603
140.636
134.569
128.521
122.412
116.188
109.952
103.868
98.1252
92.9449
88.5707
85.2438
83.2228
82.6862
83.7011
86.1412
89.6029
92.994
43.1746
25.8904
5.17883
-19.171
-44.8029
-72.609
-101.922
-130.443
-156.762
-180.79
-202.117
-220.396
-236.058
-249.514
-261.055
-271.109
-280.015
-288.015
-295.343
-302.168
-308.594
-314.664
-320.36
-325.47
-329.533
-332.072
-332.781
-331.386
-327.575
-321.001
-311.317
-298.198
-281.359
-260.598
-235.839
-207.212
-175.158
-140.58
-106.271
54.7446
69.897
85.59
100.203
112.84
124.377
134.268
142.423
149.088
154.286
158.176
160.91
162.585
163.303
163.13
162.12
160.313
157.752
154.478
150.553
146.06
141.126
135.912
130.609
125.324
119.983
114.531
109.052
103.682
98.5777
93.9255
89.9287
86.7888
84.7235
83.8847
84.3316
85.9628
88.4496
90.8963
39.0491
22.6561
3.02363
-20.0375
-44.2846
-70.559
-98.2177
-125.079
-149.809
-172.331
-192.264
-209.292
-223.831
-236.275
-246.902
-256.12
-264.252
-271.526
-278.165
-284.33
-290.124
-295.593
-300.726
-305.336
-309.005
-311.297
-311.942
-310.701
-307.296
-301.419
-292.762
-281.028
-265.957
-247.354
-225.131
-199.37
-170.413
-138.99
-107.576
50.1699
64.5654
79.4895
93.4026
105.446
116.463
125.93
133.76
140.189
145.24
149.064
151.807
153.564
154.432
154.478
153.755
152.303
150.162
147.376
143.999
140.109
135.822
131.282
126.662
122.058
117.404
112.643
107.843
103.118
98.5966
94.4325
90.7945
87.8491
85.7767
84.7044
84.6835
85.6329
87.2872
88.9209
35.2702
19.7229
1.11454
-20.7227
-43.6559
-68.4768
-94.566
-119.852
-143.079
-164.178
-182.798
-198.65
-212.138
-223.636
-233.415
-241.86
-249.278
-255.886
-261.893
-267.456
-272.671
-277.588
-282.204
-286.35
-289.649
-291.704
-292.278
-291.163
-288.114
-282.859
-275.124
-264.645
-251.182
-234.553
-214.659
-191.54
-165.452
-136.968
-108.278
45.9583
59.6348
73.8287
87.0768
98.5578
109.08
118.143
125.663
131.867
136.775
140.53
143.277
145.102
146.103
146.343
145.876
144.741
142.979
140.629
137.744
134.395
130.686
126.749
122.739
118.742
114.698
110.553
106.361
102.215
98.2219
94.5059
91.2058
88.4579
86.4089
85.1638
84.7654
85.1489
86.1015
87.043
31.8142
17.07
-0.566018
-21.2405
-42.9261
-66.3671
-90.9674
-114.762
-136.566
-156.322
-173.705
-188.453
-200.955
-211.573
-220.564
-228.296
-235.057
-241.053
-246.484
-251.497
-256.185
-260.598
-264.74
-268.459
-271.413
-273.245
-273.745
-272.734
-269.997
-265.297
-258.39
-249.043
-237.039
-222.207
-204.441
-183.747
-160.304
-134.55
-108.415
42.0851
55.0784
68.5784
81.1942
92.1405
102.192
110.871
118.094
124.081
128.85
132.536
135.279
137.162
138.278
138.691
138.452
137.601
136.177
134.217
131.772
128.907
125.715
122.315
118.847
115.389
111.887
108.289
104.638
101.011
97.4926
94.1856
91.2013
88.6499
86.649
85.2836