/*--------------------------------*- C++ -*----------------------------------*\
| =========                 |                                                 |
| \\      /  F ield         | OpenFOAM: The Open Source CFD Toolbox           |
|  \\    /   O peration     | Version:  v1806                                 |
|   \\  /    A nd           | Web:      www.OpenFOAM.com                      |
|    \\/     M anipulation  |                                                 |
\*---------------------------------------------------------------------------*/
FoamFile
{
    version     2.0;
    format      ascii;
    class       volScalarField;
    location    "287";
    object      p;
}
// * * * * * * * * * * * * * * * * * * * * * * * * * * * * * * * * * * * * * //

dimensions      [0 2 -2 0 0 0 0];


internalField   nonuniform List<scalar> 
10720
(
-1056.94
-546.383
12.2537
529.102
975.491
1346.85
1626.93
1814.19
1910.31
1934.62
1906.74
1822.61
1694.56
1539.51
1366.04
1181.03
991.371
805.35
627.709
465.368
321.952
203.462
109.669
41.3442
-8.91935
-55.3483
-98.1209
-129.32
-148.906
-158.308
-157.855
-147.926
-128.949
-101.129
-64.5052
-16.629
45.4452
144.064
298.378
-1606.57
-2138.71
-2790.37
-3467.59
-4104.79
-4696.38
-5176.05
-5459.15
-5528.16
-5470.71
-5299.07
-5030.96
-4730.94
-4431.15
-4135.56
-3858.1
-3593.66
-3345.81
-3119.09
-2924.31
-2762.25
-2630.74
-2520.38
-2420.22
-2305.99
-2167.3
-2018.74
-1865.69
-1707.8
-1544.57
-1377.12
-1206.33
-1032.52
-854.768
-672.114
-479.188
-275.201
-30.9088
201.995
-225.459
126.075
479.878
824.17
1136.55
1407.83
1624.89
1779.49
1867.89
1896.56
1872.92
1799.83
1688.1
1549.16
1390.37
1218.21
1039.36
861.088
688.767
528.556
384.827
262.747
163.33
87.0733
28.2791
-24.0627
-70.7419
-105.675
-128.71
-141.14
-143.38
-135.851
-118.998
-93.0131
-57.8926
-11.1804
49.9999
148.171
296.287
-585.025
-981.062
-1428.54
-1909.02
-2398.48
-2878.99
-3320.26
-3678.26
-3920.22
-4051.65
-4096.98
-4079.85
-4023.05
-3931.12
-3799.17
-3636.11
-3447.95
-3249.2
-3054.23
-2878.49
-2726.93
-2599.91
-2490.43
-2388.94
-2275.18
-2139.89
-1994.82
-1845.01
-1690.25
-1530.05
-1365.39
-1197.03
-1025.28
-849.211
-667.889
-475.993
-272.824
-28.6826
199.458
-74.6495
250.103
573.658
880.896
1155.51
1393.16
1584.1
1722.13
1804.92
1836.92
1821.67
1761.36
1663.85
1537.49
1389.48
1226.39
1054.84
881.685
712.848
554.23
410.675
286.933
184.844
104.746
42.3421
-11.3281
-58.3459
-94.2495
-118.406
-131.919
-135.26
-128.801
-112.95
-87.8662
-53.4952
-7.37497
53.3736
150.794
293.586
-397.812
-744.699
-1132.47
-1567
-2018.91
-2469.37
-2895.08
-3256.49
-3523.67
-3695.26
-3786.4
-3807.32
-3771.54
-3691.09
-3575.03
-3434.03
-3275.98
-3110.25
-2946.29
-2794.56
-2659.97
-2543.58
-2440.59
-2343.21
-2235.35
-2107.87
-1969.15
-1824.28
-1673.51
-1516.63
-1354.67
-1188.54
-1018.59
-844.017
-663.882
-472.948
-270.563
-27.1648
199.025
143.286
405.676
669.629
924.518
1154.66
1358.06
1525.22
1649.5
1728.38
1763.68
1756.48
1708.35
1625.08
1513.09
1378.71
1228.08
1067.33
902.856
740.607
586.298
444.931
321.06
217.059
133.421
66.9594
10.4469
-38.6669
-76.9594
-103.427
-119.064
-124.378
-119.703
-105.414
-81.6584
-48.3619
-3.08762
56.9827
153.217
290.849
-119.856
-404.927
-730.529
-1094.29
-1475.91
-1864.86
-2241.15
-2577.35
-2853.21
-3067.25
-3218.51
-3308.42
-3342.25
-3328.38
-3275.11
-3190.33
-3081.93
-2958.22
-2828.19
-2701.26
-2583.76
-2478.05
-2381.56
-2288.19
-2185.8
-2066.14
-1934.6
-1795.95
-1650.66
-1498.53
-1340.55
-1177.65
-1010.29
-837.768
-659.25
-469.64
-268.372
-26.3376
198.567
236.158
467.906
701.327
925.409
1127.14
1306.83
1456.25
1569.49
1644.93
1682.76
1682.73
1645.93
1576.26
1478.46
1357.81
1219.81
1070.1
914.69
759.413
609.849
471.133
347.752
242.473
156.088
86.3331
27.5356
-22.9913
-62.8201
-90.8629
-107.973
-114.696
-111.338
-98.2507
-75.5711
-43.194
1.30702
60.6712
155.566
287.87
2.98974
-247.334
-533.473
-856.239
-1196.53
-1548.62
-1897.75
-2221.27
-2501.28
-2728.7
-2899.22
-3012.96
-3074.49
-3091.22
-3069.72
-3015.69
-2935.85
-2837.6
-2729.18
-2619.02
-2513.57
-2415.71
-2324.12
-2233.91
-2135.86
-2022.75
-1897.61
-1764.7
-1624.66
-1477.37
-1323.66
-1164.45
-1000.18
-830.217
-653.761
-465.885
-266.126
-26.0118
196.868
305.09
507.512
712.719
910.212
1088.2
1248.27
1382.86
1486.71
1558.8
1598.35
1604.24
1577.3
1519.98
1435.69
1328.68
1203.69
1065.81
920.53
773.421
629.918
495.111
373.452
267.991
179.86
107.566
46.7394
-5.21239
-46.6563
-76.4764
-95.3135
-103.715
-101.951
-90.3214
-68.934
-37.6508
5.92713
64.4402
157.719
284.561
101.214
-117.242
-369.003
-653.986
-955.256
-1270.25
-1586.65
-1884.35
-2148.49
-2371.36
-2550.45
-2684.43
-2774.59
-2824.07
-2836.61
-2816.17
-2768.18
-2699.01
-2615.85
-2526.11
-2435.98
-2348.78
-2264.28
-2178.98
-2086.05
-1979.4
-1860.51
-1733.05
-1597.95
-1455.2
-1305.59
-1150.01
-988.912
-821.689
-647.57
-461.768
-263.913
-26.3529
193.802
341.269
522.077
706.007
882.843
1042.05
1186.22
1308.4
1404.15
1472.92
1513.26
1523.9
1505.29
1458.89
1387.05
1293.06
1180.86
1054.9
920.132
781.773
645.028
514.874
395.726
290.84
201.695
127.46
64.8805
11.6285
-31.2563
-62.6909
-83.1159
-93.0518
-92.7535
-82.474
-62.3018
-32.0719
10.5789
68.1793
159.608
280.947
158.82
-36.0321
-261.325
-517.446
-788.549
-1074.06
-1364.11
-1640.86
-1891.63
-2110.22
-2292.42
-2435.41
-2539.26
-2606.05
-2639
-2641.2
-2616.76
-2570.54
-2508.28
-2436.15
-2359.68
-2282.33
-2204.66
-2124.35
-2036.43
-1935.88
-1823.1
-1701.06
-1570.86
-1432.58
-1286.99
-1134.97
-977.008
-812.566
-640.901
-457.406
-261.822
-27.4888
189.378
361.09
523.583
689.55
849.101
992.653
1123.42
1234.91
1323.57
1388.97
1429.4
1443.69
1431.94
1394.98
1334.34
1252.45
1152.53
1038.35
914.292
785.147
655.796
531.055
415.268
311.81
222.472
147.001
83.0667
28.7066
-15.4491
-48.3898
-70.3625
-81.836
-83.0472
-74.1878
-55.3128
-26.2257
15.3924
71.9445
161.252
277.061
196.93
22.1096
-180.802
-412.146
-657.225
-916.692
-1182.3
-1437.82
-1672.18
-1880.27
-2057.85
-2202.72
-2314.9
-2395.19
-2445.42
-2467.45
-2463.98
-2438.55
-2395.68
-2340.45
-2277.72
-2210.88
-2141.01
-2066.72
-1984.51
-1890.38
-1784.01
-1667.75
-1542.73
-1409.17
-1267.77
-1119.43
-964.665
-803.048
-633.925
-452.901
-259.913
-29.4322
183.548
368.267
515.638
666.615
811.689
942.093
1061.37
1163.62
1245.95
1308
1347.97
1364.95
1358.78
1329.83
1279.08
1208.25
1119.86
1017.06
903.635
783.886
662.333
543.565
431.814
330.503
241.694
165.621
100.719
45.4476
0.188036
-34.1293
-57.5732
-70.532
-73.2182
-65.7609
-48.1821
-20.2574
20.2726
75.6745
162.625
272.894
219.221
60.8668
-123.419
-334.084
-557.261
-794.541
-1038.88
-1275.48
-1494.42
-1691.67
-1863.45
-2007.21
-2122.98
-2210.93
-2272.14
-2307.99
-2320.32
-2311.55
-2285.1
-2244.87
-2194.91
-2138.27
-2076.28
-2008.23
-1931.79
-1843.87
-1743.8
-1633.3
-1513.53
-1384.8
-1247.75
-1103.25
-951.838
-793.169
-626.691
-448.277
-258.168
-32.0917
176.346
367.363
501.813
639.934
772.598
891.75
1001.08
1095.24
1171.86
1230.57
1269.72
1288.59
1286.87
1264.66
1222.52
1161.62
1083.89
991.87
888.793
778.439
664.943
552.589
445.449
346.952
259.362
183.317
117.882
61.9442
15.778
-19.7601
-44.5803
-58.9688
-63.1067
-57.0614
-40.8107
-14.1018
25.2553
79.3808
163.732
268.464
231.241
86.9638
-81.3637
-274.201
-478.436
-696.259
-921.641
-1140.81
-1344.81
-1530.46
-1694.35
-1833.95
-1949.66
-2041.66
-2110.34
-2156.62
-2181.63
-2186.89
-2174.72
-2148.06
-2110.07
-2063.4
-2009.43
-1947.98
-1877.56
-1795.91
-1702.17
-1597.54
-1483.14
-1359.36
-1226.81
-1086.3
-938.415
-782.866
-619.191
-443.541
-256.514
-35.3121
167.969
360.81
484.14
611.146
733.06
842.437
943.05
1030.11
1101.53
1156.97
1195.05
1215.15
1216.95
1200.35
1165.63
1113.54
1045.52
963.578
870.408
769.293
663.937
558.287
456.213
361.095
275.34
199.908
134.374
78.0394
31.1726
-5.42078
-31.5084
-47.2606
-52.8122
-48.1697
-33.2596
-7.80328
30.3088
83.0382
164.571
263.785
235.824
103.621
-50.9215
-228.33
-416.136
-616.928
-825.452
-1028.88
-1219.04
-1393.38
-1548.87
-1683.2
-1796.83
-1890.13
-1963.11
-2016.42
-2050.79
-2067.06
-2066.71
-2051.77
-2024.62
-1987.37
-1941.33
-1886.59
-1822.3
-1746.86
-1659.37
-1560.64
-1451.67
-1332.92
-1204.97
-1068.6
-924.377
-772.105
-611.402
-438.698
-254.915
-38.9767
158.715
350.494
464.113
581.384
693.885
794.701
887.62
968.353
1035.02
1087.31
1124.15
1144.99
1149.51
1137.55
1109.17
1064.83
1005.57
932.918
849.106
756.924
659.646
560.863
464.203
372.945
289.574
215.3
150.102
93.6629
46.3185
8.85387
-18.3744
-35.4097
-42.3271
-39.0749
-25.5193
-1.3571
35.4302
86.6389
165.147
258.879
235.221
113.54
-28.9663
-192.818
-366.206
-551.924
-745.34
-934.497
-1111.79
-1275.22
-1422.08
-1550.25
-1660.31
-1752.82
-1827.83
-1885.66
-1926.81
-1951.66
-1961.04
-1956.19
-1938.77
-1910.36
-1872.05
-1824.05
-1765.96
-1696.71
-1615.43
-1522.6
-1419.13
-1305.5
-1182.26
-1050.14
-909.73
-760.89
-603.328
-433.77
-253.382
-43.0384
148.821
337.658
442.744
551.403
655.589
748.829
834.922
909.978
972.257
1021.58
1057.06
1078.25
1084.87
1076.7
1053.72
1016.14
964.691
900.534
825.454
741.8
652.425
560.549
469.536
382.517
302.003
229.385
164.95
108.712
61.1266
22.9851
-5.24272
-23.4685
-31.6933
-29.8093
-17.615
5.21639
40.6022
90.1691
165.466
253.767
230.966
118.499
-13.3744
-165.248
-325.866
-498.2
-678.063
-854.242
-1019.71
-1172.82
-1311.19
-1432.85
-1538.55
-1628.95
-1704.23
-1764.57
-1810.31
-1841.53
-1858.61
-1862.2
-1853.31
-1832.98
-1802.02
-1760.65
-1708.74
-1645.58
-1570.41
-1483.49
-1385.55
-1277.1
-1158.67
-1030.93
-894.479
-749.228
-594.98
-428.771
-251.964
-47.4967
138.401
323.222
420.742
521.721
618.495
704.972
784.981
854.916
913.156
959.695
993.753
1014.98
1023.18
1018.12
999.687
967.975
923.458
866.987
799.979
724.377
642.637
557.608
472.368
389.875
312.616
242.097
178.829
123.102
75.5199
36.907
7.83501
-11.4754
-20.9391
-20.3928
-9.56167
11.9041
45.8124
93.6157
165.538
248.473
224.154
119.874
-2.5778
-143.757
-293.001
-453.332
-620.96
-785.355
-939.932
-1083.39
-1213.54
-1328.6
-1429.44
-1516.81
-1591.03
-1652.33
-1700.9
-1736.68
-1759.71
-1770.21
-1768.65
-1755.59
-1731.53
-1696.59
-1650.75
-1593.59
-1524.43
-1443.36
-1350.97
-1247.76
-1134.22
-1010.98
-878.62
-737.118
-586.362
-423.712
-250.699
-52.3458
127.49
307.845
398.591
492.683
582.802
663.226
737.771
803.051
857.583
901.493
934.095
955.154
964.516
961.972
947.387
920.736
882.331
832.772
773.162
705.087
630.632
552.298
472.871
395.102
321.417
253.379
191.65
136.746
89.418
50.5464
20.7977
0.520583
-10.1032
-10.8547
-1.3822
18.6872
51.0448
96.9682
165.375
243.025
215.589
118.62
4.61723
-126.977
-266.008
-415.528
-572.08
-725.723
-870.307
-1004.75
-1127.06
-1235.61
-1331.37
-1415.17
-1487.42
-1548.5
-1598.48
-1637.27
-1664.73
-1680.72
-1685.32
-1678.68
-1660.97
-1632.15
-1592.2
-1540.87
-1477.58
-1402.29
-1315.44
-1217.5
-1108.92
-990.29
-862.155
-724.559
-577.475
-418.593
-249.603
-57.5845
116.13
291.992
376.635
464.518
548.632
623.606
693.203
754.248
805.368
846.807
877.962
898.688
908.888
908.376
897.015
874.728
841.686
798.304
745.426
684.328
616.761
544.897
471.231
398.3
328.428
263.19
203.34
149.56
102.741
63.8302
33.5821
12.4683
0.773831
-1.2262
6.89913
25.5457
56.2831
100.215
164.99
237.448
205.874
115.47
9.07348
-113.864
-243.678
-383.408
-529.888
-673.703
-809.087
-935.136
-1050.04
-1152.28
-1242.89
-1322.79
-1392.46
-1452.4
-1502.73
-1543.27
-1573.84
-1594.07
-1603.73
-1602.64
-1590.66
-1567.57
-1533.27
-1487.57
-1429.99
-1360.37
-1279.02
-1186.36
-1082.8
-968.869
-845.087
-711.553
-568.321
-413.415
-248.672
-63.184
104.372
276.002
355.13
437.382
516.047
586.09
651.188
708.369
756.34
795.458
825.198
845.471
856.24
857.364
848.708
830.164
801.814
763.925
717.135
662.458
601.352
535.678
467.655
399.598
333.709
271.53
213.857
161.482
115.419
76.6882
46.1245
24.3141
11.6476
8.45797
15.2544
32.457
61.5102
103.346
164.401
231.772
195.446
110.97
11.4638
-103.613
-225.078
-355.891
-493.169
-627.986
-754.886
-873.145
-981.07
-1077.24
-1162.76
-1238.61
-1305.3
-1363.46
-1413.3
-1454.61
-1487.17
-1510.52
-1524.22
-1527.83
-1520.95
-1503.13
-1474.16
-1433.86
-1381.78
-1317.69
-1241.79
-1154.4
-1055.89
-946.737
-827.429
-698.106
-558.903
-408.177
-247.896
-69.1056
92.2698
260.123
334.24
411.348
485.06
550.611
611.618
665.245
710.324
747.267
775.624
795.362
806.504
808.931
802.539
787.201
762.941
729.92
688.608
639.804
584.709
524.907
462.351
399.141
337.331
278.405
223.157
172.446
127.382
89.049
58.3588
36.0004
22.4697
18.1591
23.6528
39.3961
66.7083
106.354
163.625
226.03
184.629
105.541
12.3033
-95.6084
-209.459
-332.134
-460.968
-587.502
-706.587
-817.6
-918.972
-1009.37
-1089.95
-1161.69
-1225.18
-1281.11
-1329.82
-1371.11
-1404.75
-1430.27
-1447.09
-1454.58
-1452.12
-1439.09
-1415.1
-1379.92
-1333.11
-1274.39
-1203.83
-1121.67
-1028.23
-923.921
-809.193
-684.225
-549.226
-402.877
-247.267
-75.2975
79.8897
244.535
314.072
386.481
455.65
517.118
574.368
624.73
667.137
702.053
729.071
748.221
759.57
763.035
758.529
745.936
725.237
696.518
660.117
616.657
567.117
512.837
455.53
397.076
339.38
283.843
231.224
182.408
138.569
100.847
70.22
47.4689
33.1893
27.8358
32.0604
46.3367
71.8583
109.231
162.683
220.253
173.666
99.4944
11.9882
-89.366
-196.234
-311.449
-432.513
-551.411
-663.261
-767.534
-862.765
-947.705
-1023.51
-1091.2
-1151.37
-1204.81
-1251.91
-1292.57
-1326.57
-1353.44
-1372.55
-1383.16
-1384.49
-1375.72
-1356.3
-1325.92
-1284.12
-1230.57
-1165.23
-1088.25
-999.877
-900.453
-790.401
-669.922
-539.292
-397.515
-246.772
-81.7094
67.2952
229.362
294.704
362.796
427.798
485.524
539.327
586.677
626.62
659.636
685.37
703.896
715.325
719.604
716.675
706.43
688.829
663.899
631.886
593.262
548.829
499.71
447.394
393.561
339.958
287.89
238.058
191.334
148.927
112.02
81.6442
58.6592
43.7527
37.4434
40.4405
53.2493
76.9412
111.97
161.595
214.472
162.742
93.0731
10.8247
-84.5021
-184.957
-293.292
-407.187
-519.018
-624.162
-722.164
-811.651
-891.435
-962.667
-1026.39
-1083.23
-1134
-1179.18
-1218.75
-1252.52
-1280.08
-1300.78
-1313.8
-1318.27
-1313.24
-1297.97
-1272.04
-1234.98
-1186.38
-1126.11
-1054.22
-970.879
-876.374
-771.077
-655.21
-529.111
-392.084
-246.393
-88.2853
54.5533
214.699
276.178
340.29
401.459
455.748
506.374
550.948
588.608
619.846
644.354
662.242
673.654
678.568
676.949
668.708
653.796
632.202
604.096
569.84
530.08
485.751
438.149
388.762
339.183
290.61
243.673
199.203
158.413
122.513
92.5699
69.5115
54.1051
46.9349
48.754
60.1037
81.9372
114.568
160.384
208.723
151.985
86.4609
9.05466
-80.7106
-175.25
-277.237
-384.491
-489.777
-588.691
-680.842
-764.945
-839.878
-906.768
-966.655
-1020.19
-1068.21
-1111.26
-1149.39
-1182.5
-1210.2
-1231.86
-1246.68
-1253.71
-1251.89
-1240.33
-1218.49
-1185.84
-1141.95
-1086.57
-1019.66
-941.308
-851.731
-751.252
-640.107
-518.686
-386.58
-246.108
-94.9665
41.7373
200.604
258.517
318.953
376.582
427.702
475.396
517.405
552.947
582.518
605.859
623.104
634.427
639.826
639.299
632.773
620.192
601.531
576.9
546.572
511.066
471.164
427.981
382.838
337.174
292.078
248.098
206.007
166.995
132.275
102.94
79.9664
64.191
56.2607
56.96
66.8676
86.8261
117.02
159.071
203.037
141.498
79.798
6.86818
-77.7507
-166.817
-262.925
-364.017
-463.209
-556.325
-643.017
-722.084
-792.447
-855.217
-911.422
-961.721
-1006.99
-1047.78
-1084.24
-1116.34
-1143.74
-1165.87
-1181.94
-1190.98
-1191.86
-1183.56
-1165.43
-1136.89
-1097.44
-1046.75
-984.675
-911.239
-826.579
-730.963
-624.635
-508.026
-380.991
-245.893
-101.696
28.9249
187.113
241.732
298.756
353.11
401.307
446.283
485.919
519.492
547.508
569.737
586.343
597.518
603.285
603.664
598.602
588.047
571.96
550.412
523.608
491.963
456.132
417.071
375.946
334.055
292.377
251.377
211.754
174.65
141.264
112.7
89.9668
73.955
65.3688
65.0151
73.5078
91.5877
119.324
157.678
197.446
131.355
73.1892
4.40576
-75.4322
-159.424
-250.07
-345.423
-438.936
-526.634
-608.23
-682.571
-748.638
-807.517
-860.215
-907.382
-949.911
-988.396
-1023.04
-1053.88
-1080.64
-1102.82
-1119.66
-1130.23
-1133.34
-1127.87
-1113.06
-1088.28
-1052.98
-1006.76
-949.373
-880.757
-800.978
-710.251
-608.817
-497.14
-375.309
-245.714
-108.413
16.1886
174.252
225.816
279.673
330.986
376.472
418.932
456.365
488.107
514.667
535.846
551.822
562.807
568.842
569.972
566.16
557.364
543.537
524.722
501.075
472.927
440.821
405.585
368.239
329.952
291.601
253.565
216.461
181.367
149.449
121.804
99.4592
83.3415
74.2078
72.8752
79.9902
96.2011
121.477
156.225
191.98
121.603
66.7206
1.78788
-73.6061
-152.878
-238.431
-328.428
-416.632
-499.277
-576.099
-646.008
-708.034
-763.237
-812.596
-856.759
-896.62
-932.791
-965.523
-994.931
-1020.81
-1042.69
-1059.91
-1071.57
-1076.46
-1073.4
-1061.53
-1040.17
-1008.74
-966.744
-913.863
-849.95
-775.001
-689.166
-592.68
-486.036
-369.521
-245.537
-115.055
3.60629
162.034
210.752
261.662
310.149
353.117
393.241
428.625
458.662
483.861
504.045
519.405
530.169
536.396
538.148
535.404
528.134
516.291
499.899
479.074
454.083
425.377
393.669
359.859
324.992
289.849
254.73
220.161
187.148
156.806
130.211
108.392
92.2987
82.7263
80.496
86.2803
100.647
123.479
154.732
186.668
112.279
60.4469
-0.897087
-72.1431
-147.013
-227.809
-312.801
-396.045
-473.954
-546.296
-612.043
-670.273
-722.009
-768.2
-809.488
-846.769
-880.661
-911.453
-939.308
-964.102
-985.445
-1002.71
-1015.07
-1021.35
-1020.3
-1011
-992.731
-964.856
-926.835
-878.266
-818.916
-748.715
-667.76
-576.261
-474.722
-363.617
-245.324
-121.561
-8.74739
150.459
196.524
244.686
290.541
331.165
369.114
402.592
431.04
454.964
474.206
488.971
499.492
505.844
508.109
506.279
500.335
490.233
475.988
457.684
435.536
409.923
381.46
350.938
319.295
287.218
254.937
222.89
192.002
163.322
137.89
116.721
100.775
90.874
87.8327
92.3437
104.904
125.329
153.217
181.532
103.404
54.4165
-3.57907
-70.9456
-141.702
-218.049
-298.347
-376.94
-450.408
-518.546
-580.381
-635.04
-683.51
-726.71
-765.266
-800.062
-831.732
-860.584
-886.828
-910.407
-931.005
-948.056
-960.798
-968.101
-968.699
-961.615
-946.101
-921.483
-887.172
-842.696
-787.757
-722.206
-646.087
-559.587
-463.214
-357.579
-245.036
-127.871
-20.7978
139.52
183.11
228.699
272.102
310.539
346.459
378.163
405.127
427.856
446.208
460.397
470.662
477.09
479.776
478.728
473.934
465.362
453.018
436.962
417.373
394.567
369.078
341.601
312.974
283.809
254.264
224.701
195.949
168.991
144.814
124.409
108.725
98.6027
94.8419
98.1452
108.952
127.025
151.694
176.596
94.989
48.6597
-6.20202
-69.94
-136.84
-209.019
-284.911
-359.132
-428.428
-492.615
-550.77
-602.067
-647.457
-687.831
-723.802
-756.228
-785.746
-812.692
-837.301
-859.584
-879.284
-895.908
-908.769
-916.787
-918.699
-913.499
-900.415
-878.755
-847.887
-807.284
-756.576
-695.558
-624.211
-542.698
-451.522
-351.396
-244.63
-133.93
-32.4736
129.207
170.479
213.663
254.771
291.169
325.191
355.24
380.821
402.427
419.94
433.574
443.574
450.035
453.066
452.686
448.893
441.665
431.004
416.955
399.664
379.4
356.626
331.957
306.141
279.719
252.793
225.645
199.019
173.817
150.967
131.421
116.107
105.867
101.481
103.652
112.772
128.565
150.176
171.876
87.0408
43.1988
-8.72842
-69.0591
-132.344
-200.609
-272.356
-342.463
-407.832
-468.301
-522.994
-571.126
-613.62
-651.325
-684.847
-715.022
-742.48
-767.57
-790.559
-811.494
-830.194
-846.234
-858.991
-867.455
-870.385
-866.759
-855.801
-836.804
-809.108
-772.142
-725.483
-668.857
-602.196
-525.637
-439.656
-345.054
-244.067
-139.674
-43.7058
119.505
158.604
199.534
238.492
272.983
305.233
333.733
358.018
378.573
395.293
408.392
418.124
424.587
427.897
428.088
425.169
419.122
409.95
397.69
382.462
364.496
344.194
322.103
298.894
275.04
250.598
225.782
201.248
177.814
156.341
137.733
122.885
112.627
107.71
108.833
116.345
129.951
148.673
167.385
79.5565
38.0471
-11.1252
-68.2526
-128.14
-192.722
-260.569
-326.798
-388.468
-445.433
-496.864
-542.018
-581.784
-616.981
-648.188
-676.23
-701.719
-725.023
-746.42
-765.997
-783.633
-798.967
-811.442
-820.125
-823.811
-821.483
-812.364
-795.751
-770.962
-737.395
-694.577
-642.193
-580.113
-508.441
-427.638
-338.539
-243.299
-145.057
-54.4304
110.395
147.456
186.267
223.212
255.914
286.505
313.554
336.624
356.194
372.164
384.753
394.214
400.652
404.188
404.868
402.709
397.702
389.85
379.184
365.806
349.913
331.861
312.13
291.324
269.863
247.763
225.178
202.679
181.002
160.938
143.33
129.03
118.845
113.493
113.658
119.654
131.178
147.192
163.131
72.5304
33.2127
-13.3703
-67.4843
-124.175
-185.285
-249.455
-312.025
-370.206
-423.865
-472.22
-514.569
-551.764
-584.602
-613.633
-639.659
-663.284
-684.87
-704.723
-722.954
-739.488
-754.03
-766.09
-774.807
-779.024
-777.743
-770.199
-755.701
-733.561
-703.153
-663.972
-615.652
-558.029
-491.16
-415.478
-331.839
-242.293
-150.024
-64.5908
101.859
137.001
173.823
208.875
239.9
268.935
294.625
316.557
335.2
350.464
362.564
371.755
378.147
381.863
382.96
381.465
377.372
370.689
361.444
349.724
335.701
319.687
302.111
283.514
264.27
244.363
223.895
203.359
183.41
164.763
148.199
134.518
124.491
118.799
118.099
122.681
132.243
145.736
159.118
65.9538
28.6964
-15.4474
-66.7221
-120.399
-178.236
-238.931
-298.051
-352.936
-403.475
-448.924
-488.629
-523.406
-554.02
-581.006
-605.135
-626.998
-646.955
-665.32
-682.233
-697.656
-711.353
-722.896
-731.496
-736.05
-735.594
-729.388
-716.754
-697.011
-669.525
-633.763
-589.328
-536.01
-473.838
-403.199
-324.943
-241.009
-154.533
-74.1338
93.8718
127.211
162.158
195.431
224.882
252.455
276.871
297.736
315.506
330.101
341.735
350.66
356.987
360.846
362.3
361.382
358.095
352.449
344.47
334.237
321.896
307.727
292.111
275.538
258.338
240.472
221.998
203.339
185.071
167.834
152.341
139.334
129.541
123.599
122.133
125.411
133.143
144.307
155.344
59.8152
24.4973
-17.3484
-65.9412
-116.776
-171.522
-228.934
-284.791
-336.561
-384.153
-426.862
-464.074
-496.575
-525.097
-550.16
-572.507
-592.706
-611.122
-628.07
-643.706
-658.026
-670.847
-681.8
-690.164
-694.898
-695.077
-689.992
-678.991
-661.409
-636.612
-604.051
-563.305
-514.13
-456.52
-390.82
-317.847
-239.411
-158.54
-83.0121
86.4136
118.052
151.233
182.831
210.801
237.001
260.217
280.079
297.029
310.992
322.182
330.845
337.095
341.064
342.822
342.407
339.83
335.105
328.255
319.35
308.522
296.02
282.185
267.458
252.135
236.158
219.552
202.672
186.023
170.172
155.761
143.47
133.976
127.871
125.739
127.829
133.873
142.902
151.803
54.0995
20.6109
-19.0659
-65.1265
-113.275
-165.099
-219.408
-272.174
-321.001
-365.809
-405.93
-440.79
-471.147
-497.706
-520.964
-541.637
-560.276
-577.236
-592.84
-607.252
-620.494
-632.431
-642.744
-650.78
-655.562
-656.211
-652.059
-642.484
-626.839
-604.504
-574.924
-537.665
-492.457
-439.256
-378.362
-310.544
-237.476
-162.014
-91.1879
79.4605
109.494
141.008
171.027
197.602
222.511
244.599
263.517
279.692
293.06
303.825
312.232
318.394
322.446
324.463
324.488
322.536
318.627
312.782
305.067
295.6
284.601
272.379
259.332
245.723
231.487
216.617
201.413
186.309
171.805
158.472
146.926
137.786
131.599
128.9
129.924
134.428
141.515
148.486
48.7914
17.0293
-20.5983
-64.2647
-109.874
-158.934
-210.302
-260.145
-306.187
-348.358
-386.032
-418.676
-447.014
-471.728
-493.294
-512.402
-529.577
-545.174
-559.506
-572.753
-584.954
-596.012
-605.658
-613.302
-618.03
-619.013
-615.626
-607.284
-593.37
-573.28
-546.468
-512.49
-471.056
-422.092
-365.85
-303.038
-235.178
-164.924
-98.6337
72.9879
101.506
131.446
159.975
185.236
208.928
229.955
247.983
263.429
276.231
286.591
294.748
300.815
304.927
307.162
307.569
306.169
302.983
298.035
291.384
283.137
273.493
262.729
251.206
239.159
226.517
213.252
199.614
185.974
172.766
160.494
149.708
140.967
134.771
131.604
131.686
134.801
140.14
145.377
43.8744
13.7439
-21.9461
-63.3461
-106.552
-152.995
-201.578
-248.651
-292.056
-331.732
-367.097
-397.648
-424.089
-447.072
-467.054
-484.694
-500.502
-514.822
-527.959
-540.104
-551.309
-561.507
-570.476
-577.679
-582.274
-583.478
-580.712
-573.433
-561.059
-543.011
-518.755
-487.849
-449.99
-405.077
-353.309
-295.327
-232.502
-167.249
-105.324
66.9737
94.0593
122.51
149.632
173.652
196.197
216.222
233.412
248.17
260.436
270.41
278.322
284.287
288.439
290.86
291.6
290.685
288.14
283.99
278.291
271.139
262.713
253.264
243.119
232.49
221.303
209.515
197.33
185.065
173.092
161.852
151.829
143.524
137.385
133.844
133.106
134.986
138.765
142.46
39.331
10.7435
-23.1124
-62.3665
-103.296
-147.26
-193.202
-237.649
-278.557
-315.875
-349.056
-377.635
-402.29
-423.646
-442.147
-458.418
-472.951
-486.077
-498.098
-509.204
-519.463
-528.829
-537.123
-543.86
-548.258
-549.593
-547.328
-540.962
-529.955
-513.756
-491.85
-463.809
-429.317
-388.252
-340.767
-287.422
-229.435
-168.977
-111.243
61.3941
87.1236
114.167
139.957
162.805
184.267
203.347
219.745
233.852
245.611
255.214
262.891
268.748
272.923
275.498
276.528
276.04
274.064
270.625
265.776
259.604
252.272
244.008
235.106
225.76
215.894
205.456
194.611
183.628
172.823
162.577
153.311
145.465
139.44
135.615
134.18
134.976
137.379
139.715
35.1436
8.01677
-24.1024
-61.322
-100.094
-141.706
-185.146
-227.105
-265.646
-300.731
-331.849
-358.569
-381.546
-401.377
-418.49
-433.484
-446.829
-458.845
-469.825
-479.959
-489.324
-497.895
-505.527
-511.784
-515.942
-517.333
-515.469
-509.886
-500.089
-485.558
-465.81
-440.425
-409.09
-371.663
-328.251
-279.334
-225.976
-170.096
-116.386
56.2254
80.6705
106.381
130.912
152.652
173.09
191.277
206.926
220.416
231.694
240.944
248.39
254.137
258.32
261.024
262.304
262.192
260.72
257.913
253.822
248.529
242.177
234.976
227.193
219.002
210.333
201.123
191.508
181.712
172.002
162.703
154.177
146.807
140.946
136.921
134.905
134.767
135.97
137.118
31.2951
5.55076
-24.9209
-60.2115
-96.9387
-136.321
-177.385
-216.985
-253.284
-286.256
-315.423
-340.391
-361.789
-380.192
-396.009
-409.815
-422.056
-433.04
-443.051
-452.278
-460.807
-468.624
-475.615
-481.39
-485.281
-486.673
-485.122
-480.21
-471.481
-458.454
-440.677
-417.747
-389.357
-355.35
-315.79
-271.078
-222.128
-170.611
-120.753
51.4451
74.6734
99.1194
122.458
143.149
162.618
179.961
194.902
207.809
218.628
227.541
234.762
240.396
244.575
247.384
248.879
249.098
248.07
245.825
242.411
237.902
232.429
226.182
219.402
212.25
204.659
196.562
188.068
179.364
170.673
162.269
154.46
147.573
141.916
137.767
135.281
134.351
134.523
134.646
27.7664
3.3335
-25.5767
-59.036
-93.8232
-131.09
-169.9
-207.261
-241.437
-272.411
-299.735
-323.052
-342.966
-360.031
-374.639
-387.338
-398.554
-408.583
-417.698
-426.083
-433.83
-440.937
-447.316
-452.615
-456.222
-457.572
-456.266
-451.928
-444.142
-432.468
-416.487
-395.817
-370.161
-339.352
-303.415
-262.676
-217.903
-170.528
-124.351
47.0315
69.1052
92.3531
114.56
134.258
152.809
169.352
183.623
195.976
206.361
214.949
221.952
227.47
231.634
234.527
236.208
236.715
236.081
234.335
231.523
227.713
223.026
217.631
211.75
205.528
198.905
191.811
184.336
176.63
168.88
161.314
154.192
147.789
142.368
138.164
135.312
133.726
133.025
132.276
24.5403
1.35063
-26.0773
-57.7988
-90.7442
-126.003
-162.674
-197.912
-230.077
-259.158
-284.743
-306.505
-325.026
-340.838
-354.319
-365.99
-376.256
-385.402
-393.688
-401.295
-408.315
-414.759
-420.558
-425.394
-428.71
-429.989
-428.874
-425.026
-418.073
-407.614
-393.262
-374.666
-351.537
-323.702
-291.155
-254.147
-213.314
-169.861
-127.195
42.9629
63.9409
86.0516
107.186
125.942
143.623
159.407
173.043
184.869
194.839
203.118
209.909
215.309
219.447
222.407
224.245
225.004
224.717
223.413
221.135
217.949
213.962
209.329
204.25
198.86
193.101
186.91
180.352
173.555
166.669
159.882
153.411
147.486
142.326
138.128
135.005
132.888
131.462
129.983
21.5988
-0.410113
-26.432
-56.5021
-87.6997
-121.052
-155.692
-188.917
-219.177
-246.469
-270.412
-290.71
-307.924
-322.565
-334.995
-345.711
-355.099
-363.43
-370.953
-377.842
-384.191
-390.019
-395.27
-399.665
-402.691
-403.878
-402.908
-399.481
-393.263
-383.893
-371.02
-354.317
-333.513
-308.432
-279.04
-245.52
-208.386
-168.633
-129.307
39.2188
59.156
80.1869
100.303
118.165
135.021
150.084
163.117
174.443
184.018
191.999
198.583
203.864
207.967
210.977
212.949
213.926
213.943
213.03
211.227
208.594
205.231
201.277
196.912
192.261
187.275
181.889
176.157
170.181
164.082
158.016
152.158
146.698
141.818
137.675
134.367
131.836
129.821
127.742
18.9253
-1.9632
-26.6482
-55.1507
-84.6879
-116.23
-148.943
-180.259
-208.715
-234.315
-256.708
-275.629
-291.619
-305.165
-316.618
-326.449
-335.026
-342.606
-349.427
-355.655
-361.386
-366.644
-371.385
-375.362
-378.105
-379.187
-378.328
-375.263
-369.695
-361.301
-349.764
-334.786
-316.112
-293.569
-267.097
-236.822
-203.144
-166.869
-130.714
35.7786
54.7275
74.7315
93.8807
110.893
126.965
141.346
153.804
164.653
173.85
181.545
187.928
193.089
197.15
200.195
202.279
203.445
203.728
203.158
201.776
199.634
196.825
193.473
189.743
185.748
181.447
176.779
171.786
166.548
161.164
155.759
150.474
145.462
140.872
136.83
133.412
130.571
128.092
125.533
16.5029
-3.32141
-26.7365
-53.749
-81.7096
-111.533
-142.417
-171.921
-198.669
-222.672
-243.604
-261.23
-276.072
-288.597
-299.142
-308.154
-315.981
-322.871
-329.048
-334.672
-339.836
-344.568
-348.837
-352.42
-354.892
-355.864
-355.089
-352.337
-347.344
-339.824
-329.492
-316.08
-299.352
-279.135
-255.355
-228.084
-197.62
-164.603
-131.448
32.6235
50.6326
69.6605
87.8902
104.095
119.423
133.153
145.065
155.46
164.296
171.715
177.901
182.942
186.954
190.02
192.195
193.523
194.038
193.771
192.759
191.052
188.733
185.915
182.747
179.333
175.638
171.608
167.272
162.696
157.957
153.154
148.4
143.818
139.523
135.616
132.154
129.096
126.265
123.333
14.3151
-4.49761
-26.7061
-52.3018
-78.7645
-106.955
-136.104
-163.892
-189.023
-211.515
-231.072
-247.482
-261.25
-272.822
-282.523
-290.778
-297.917
-304.172
-309.76
-314.831
-319.475
-323.727
-327.561
-330.779
-332.992
-333.853
-333.142
-330.662
-326.179
-319.441
-310.195
-298.201
-283.241
-265.149
-243.838
-219.334
-191.849
-161.872
-131.546
29.7348
46.8501
64.9495
82.3042
97.7422
112.36
125.472
136.864
146.826
155.315
162.468
168.462
173.381
177.338
180.414
182.662
184.127
184.844
184.841
184.154
182.831
180.945
178.599
175.927
173.025
169.866
166.399
162.646
158.66
154.499
150.243
145.979
141.803
137.805
134.06
130.61
127.416
124.332
121.125
12.3463
-5.50461