/*--------------------------------*- C++ -*----------------------------------*\
| =========                 |                                                 |
| \\      /  F ield         | OpenFOAM: The Open Source CFD Toolbox           |
|  \\    /   O peration     | Version:  v1806                                 |
|   \\  /    A nd           | Web:      www.OpenFOAM.com                      |
|    \\/     M anipulation  |                                                 |
\*---------------------------------------------------------------------------*/
FoamFile
{
    version     2.0;
    format      ascii;
    class       volScalarField;
    location    "321";
    object      p;
}
// * * * * * * * * * * * * * * * * * * * * * * * * * * * * * * * * * * * * * //

dimensions      [0 2 -2 0 0 0 0];


internalField   nonuniform List<scalar> 
10720
(
-1197.39
-1660.33
-2201.43
-2717.89
-3176.07
-3636.45
-4030.39
-4345.75
-4609.98
-4802.35
-4935.8
-5024.17
-5073.38
-5085.46
-5062.92
-5003.47
-4914.32
-4788.34
-4632.8
-4440.01
-4216.35
-3957.25
-3675.83
-3377.5
-3082.52
-2820.28
-2584.55
-2354.01
-2126.65
-1903.57
-1683.6
-1465.8
-1249.47
-1033.19
-815.35
-589.606
-353.791
-74.9011
200.252
-717.076
-276.146
216.82
694.567
1123.17
1478.11
1737.24
1885.01
1934.79
1923.72
1859.04
1754.58
1636.63
1517.27
1400.47
1286.7
1177.89
1073.02
971.088
869.701
768.637
666.277
563.058
461.041
370.203
296.455
234.577
182.642
140.712
109.162
87.6368
75.5062
72.2728
77.9592
92.6753
118.585
158.947
233.396
366.924
-318.362
-675.006
-1067.2
-1474.94
-1886.24
-2300.48
-2694.67
-3056.9
-3384.67
-3668.53
-3909.29
-4107.08
-4261.15
-4372.42
-4440.15
-4465.13
-4450.93
-4394.84
-4300.38
-4164.36
-3990.72
-3778.38
-3537.67
-3275.56
-3010.28
-2767.09
-2543.07
-2321.5
-2101.04
-1883.34
-1667.74
-1453.5
-1240.06
-1026.09
-810.042
-585.672
-350.912
-72.4875
198.349
6.97678
321.666
642.672
963.359
1259.37
1515.2
1712.35
1835.85
1888.26
1883.03
1828.95
1741.82
1638.78
1529.48
1418.56
1308.22
1200.51
1095.57
992.864
890.951
789.461
687.405
585.232
485.104
394.824
319.469
255.541
201.441
157.35
123.655
100.049
86.0254
81.1337
85.3574
98.8407
123.771
163.36
237.353
365.029
-179.592
-500.084
-854.28
-1240.06
-1632.99
-2028.29
-2417
-2782.52
-3115.66
-3411.73
-3663.74
-3869.31
-4029.77
-4148.11
-4224.96
-4261.68
-4259.12
-4216.72
-4136.13
-4016.46
-3859.98
-3667.43
-3446.51
-3204.86
-2957.45
-2724.9
-2507.68
-2292.83
-2078.22
-1865.31
-1653.66
-1442.61
-1231.7
-1019.72
-805.224
-582.079
-348.315
-70.9558
197.211
114.342
406.828
704.961
995.93
1258.39
1482.79
1655.95
1767.56
1820.97
1824.39
1784.28
1712.71
1621.83
1520.75
1415.27
1308.63
1203.07
1099.46
997.672
896.803
796.377
695.78
595.389
497.188
407.39
330.935
265.965
210.962
166
131.402
106.906
92.0534
86.3996
89.9249
102.822
127.289
166.534
239.869
361.99
45.8608
-223.337
-526.259
-854.652
-1194.56
-1544.82
-1895.1
-2234.59
-2555.21
-2850.68
-3114.79
-3344.07
-3537.15
-3693.57
-3812.5
-3892.65
-3932.23
-3930.62
-3888.12
-3804.61
-3681.59
-3520.88
-3328.87
-3113.66
-2888.26
-2670.29
-2463.05
-2257.04
-2049.82
-1842.9
-1636.2
-1429.2
-1221.55
-1012.17
-799.699
-578.186
-345.798
-70.2347
195.339
290.006
528.799
773.33
1016.49
1238.4
1431.88
1585.15
1688.24
1743.1
1754.46
1726.82
1669.73
1592.39
1502.63
1406.06
1306.17
1205.34
1104.95
1005.35
906.147
807.075
707.888
609.037
512.417
423.175
345.968
280.008
223.917
177.739
141.828
116.014
99.8828
93.0453
95.5109
107.526
131.289
169.948
242.21
358.859
134.733
-105.509
-377.161
-674.269
-982.911
-1305.06
-1632.14
-1953.93
-2264.15
-2556.12
-2823.24
-3061.11
-3266.42
-3436.77
-3570.29
-3665.02
-3720.07
-3734.86
-3709.34
-3643.95
-3539.77
-3398.99
-3226.92
-3031.25
-2823.24
-2617.55
-2418.85
-2220.47
-2019.93
-1818.63
-1616.8
-1413.98
-1209.84
-1003.38
-793.283
-573.787
-343.196
-70.0518
192.07
353.364
566.055
784.08
1000.16
1196.8
1369.56
1508.49
1605.44
1661.3
1678.97
1662.26
1618.27
1553.95
1475.68
1388.57
1296.09
1200.8
1104.42
1007.73
910.843
813.738
716.45
619.533
524.789
436.527
359.011
292.3
235.329
188.162
151.175
124.272
107.09
99.2874
100.885
112.163
135.307
173.377
244.423
355.553
205.482
-7.2832
-249.504
-514.305
-789.874
-1080.08
-1376.72
-1671.75
-1960.46
-2236.59
-2494.44
-2729.68
-2938.36
-3117.29
-3263.99
-3376.27
-3452.62
-3491.36
-3491.19
-3451.87
-3373.84
-3259.01
-3111.78
-2939.22
-2751.18
-2560.08
-2371.6
-2181.75
-1988.46
-1793.14
-1596.34
-1397.77
-1197.24
-993.816
-786.283
-569.066
-340.637
-70.5851
187.415
398.905
586.104
779.127
971.636
1147.42
1303.43
1430.87
1522.76
1579.06
1601.6
1593.83
1561.05
1508.6
1441.56
1364.36
1280.2
1191.59
1100.39
1007.69
913.974
819.506
724.57
629.841
537.068
449.956
372.402
305.108
247.38
199.297
161.255
133.235
114.942
106.083
106.701
117.125
139.53
176.875
246.442
351.97
242.254
50.055
-169.457
-409.795
-659.574
-924.269
-1196.57
-1469.34
-1739.39
-2001.02
-2249.2
-2479.91
-2688.9
-2872.48
-3027.58
-3151.4
-3241.04
-3294.69
-3310.55
-3288.34
-3228.44
-3132.64
-3004.73
-2851.05
-2680.13
-2502.35
-2323.65
-2142.1
-1956.03
-1766.76
-1575.05
-1380.83
-1183.98
-983.692
-778.856
-564.124
-338.204
-71.9134
181.414
417.095
585.63
760.06
934.459
1093.98
1236.65
1354.79
1442.25
1498.43
1524.64
1524.01
1500.63
1458.64
1402.07
1334.58
1258.96
1177.53
1092.17
1004.14
914.203
822.89
730.712
638.467
547.862
462.16
384.929
317.327
259.031
210.171
171.174
142.106
122.75
112.869
112.534
122.116
143.767
180.325
248.193
348.129
263.881
89.4066
-110.437
-329.113
-555.929
-797.239
-1046.26
-1296.8
-1546.69
-1791.04
-2025.43
-2246.44
-2450.05
-2632.49
-2790.43
-2920.69
-3020.23
-3087.01
-3118.87
-3114.72
-3074.35
-2998.94
-2891.53
-2757.56
-2604.42
-2440.85
-2272.85
-2100.21
-1921.83
-1738.99
-1552.69
-1363.06
-1170.08
-973.073
-771.071
-559.003
-335.904
-73.9879
174.114
422.759
575.458
734.217
893.534
1039.62
1171.14
1281.51
1364.96
1420.5
1449.42
1454.39
1438.72
1405.73
1358.6
1300.3
1233.15
1159.18
1080.17
997.421
911.875
824.262
735.281
645.843
557.623
473.579
396.99
329.334
270.641
221.133
181.269
151.207
130.812
119.91
118.599
127.295
148.119
183.777
249.701
344.067
273.141
113.37
-69.9469
-270.456
-477.883
-699.057
-927.84
-1158.62
-1390.14
-1618.1
-1838.75
-2049.28
-2245.95
-2425.17
-2583.57
-2717.81
-2824.59
-2901.27
-2945.34
-2955.16
-2930.27
-2871.6
-2781.6
-2664.95
-2527.97
-2377.94
-2220.56
-2056.81
-1886.21
-1709.98
-1529.28
-1344.43
-1155.52
-961.976
-762.965
-553.733
-333.699
-76.6847
165.652
418.782
558.452
704.233
850.968
985.766
1107.88
1211.6
1291.35
1345.9
1376.72
1386.02
1376.62
1351.24
1312.43
1262.58
1203.53
1137.03
1064.61
987.544
906.843
823.375
737.978
651.65
566.051
483.914
408.284
340.845
281.959
231.954
191.338
160.359
138.97
127.067
124.78
132.571
152.519
187.182
250.943
339.782
274.739
127.632
-41.3617
-226.025
-416.533
-619.921
-830.473
-1043.14
-1257.3
-1469.16
-1675.6
-1874.35
-2062.05
-2235.49
-2391.4
-2526.39
-2637.11
-2720.75
-2774.73
-2796.92
-2786.42
-2743.63
-2670.35
-2570.44
-2449.21
-2312.7
-2166.21
-2011.61
-1849.01
-1679.62
-1504.74
-1324.88
-1140.23
-950.357
-754.534
-548.339
-331.569
-79.9044
156.252
409.025
537.561
672.262
808.245
933.39
1047.38
1145.27
1221.55
1274.9
1306.94
1319.56
1315.19
1296.17
1264.58
1222.33
1170.88
1111.61
1045.84
974.706
899.199
820.255
738.793
655.877
573.145
493.167
418.803
351.863
292.993
242.654
201.408
169.593
147.26
134.377
131.113
137.971
156.982
190.542
251.928
335.287
270.945
134.784
-21.7692
-192.647
-368.383
-556.142
-750.545
-947.006
-1145.29
-1342.07
-1534.83
-1721.76
-1899.87
-2066.34
-2218.16
-2352.08
-2464.77
-2553.25
-2614.83
-2647.02
-2648.49
-2619.31
-2560.77
-2475.98
-2369.35
-2245.82
-2110.17
-1964.8
-1810.31
-1647.94
-1479.08
-1304.4
-1124.22
-938.202
-745.769
-542.832
-329.524
-83.5969
146.103
395.414
514.382
639.509
766.19
882.936
989.858
1082.52
1155.5
1207.55
1240.28
1255.4
1255.04
1241.3
1215.89
1180.38
1135.88
1083.49
1024.25
959.125
889.031
814.894
737.67
658.437
578.805
501.235
428.43
362.271
303.64
253.14
211.4
178.845
155.629
141.796
137.561
143.464
161.481
193.837
252.653
330.602
263.574
137.022
-8.57436
-167.294
-330.015
-503.899
-683.853
-865.658
-1049.4
-1232.12
-1411.75
-1586.91
-1755.01
-1913.63
-2060.03
-2191.15
-2303.84
-2395.09
-2462.16
-2502.47
-2514.22
-2497.13
-2451.99
-2381.19
-2288.31
-2177.34
-2052.48
-1916.4
-1770.13
-1614.94
-1452.28
-1282.99
-1107.46
-925.505
-736.667
-537.223
-327.593
-87.7485
135.316
379.453
490.063
606.813
725.31
834.674
935.351
1023.25
1093.11
1143.76
1176.8
1193.75
1196.59
1187.17
1167.01
1137.4
1099.19
1053.2
1000.24
941.068
876.485
807.355
734.607
659.296
582.993
508.068
437.101
372.002
313.84
263.364
221.274
188.088
164.057
149.313
144.118
149.045
166.008
197.055
253.124
325.743
253.829
135.762
-0.104933
-148.031
-299.209
-460.728
-627.751
-796.333
-966.829
-1136.61
-1303.91
-1467.73
-1625.84
-1776.18
-1916.37
-2043.61
-2154.91
-2247.37
-2318.17
-2364.81
-2385.05
-2378.31
-2344.96
-2286.79
-2206.61
-2107.6
-1993.31
-1866.52
-1728.52
-1580.65
-1424.36
-1260.63
-1089.96
-912.26
-727.231
-531.521
-325.806
-92.3435
123.947
362.087
465.357
574.669
685.904
788.695
883.8
967.347
1034.23
1083.43
1116.45
1134.73
1140.07
1134.2
1118.46
1093.96
1061.36
1021.24
974.212
920.838
861.757
797.731
729.62
658.427
585.662
513.608
444.741
380.972
323.515
273.255
230.972
197.271
172.506
156.896
150.758
154.691
170.545
200.182
253.347
320.73
242.565
132.063
4.90727
-133.357
-274.215
-424.651
-580.051
-736.68
-895.126
-1052.99
-1208.77
-1361.77
-1510.1
-1652.03
-1785.51
-1908.03
-2016.82
-2109.12
-2182.12
-2233.47
-2260.64
-2262.73
-2239.77
-2192.97
-2124.51
-2036.82
-1932.84
-1815.25
-1685.55
-1545.08
-1395.32
-1237.32
-1071.69
-898.461
-717.459
-525.726
-324.189
-97.3678
112.044
344.017
440.739
543.429
648.138
745.032
835.085
914.616
978.692
1026.39
1059.17
1078.37
1085.65
1082.67
1070.64
1050.53
1022.87
988.081
946.577
898.747
845.06
786.148
722.77
655.845
586.796
517.815
451.29
389.111
332.596
282.75
240.437
206.35
180.941
164.519
157.46
160.385
175.077
203.204
253.33
315.582
230.381
126.689
7.37935
-122.177
-253.765
-394.224
-539.113
-684.936
-832.392
-979.288
-1124.37
-1267.18
-1406.1
-1539.72
-1666.25
-1783.52
-1888.97
-1980.06
-2054.04
-2108.7
-2141.35
-2150.83
-2136.84
-2100.16
-2042.38
-1965.29
-1871.25
-1762.72
-1641.29
-1508.28
-1365.17
-1213.06
-1052.66
-884.104
-707.351
-519.841
-322.741
-102.806
99.6594
325.716
416.557
513.271
612.089
703.643
789.081
864.893
926.296
972.477
1004.84
1024.63
1033.41
1032.77
1023.84
1007.49
984.155
954.143
917.716
875.107
826.626
772.761
714.146
651.588
586.392
520.66
456.697
396.353
341.011
291.782
249.611
215.273
189.319
172.148
164.196
166.106
179.583
206.108
253.084
310.324
217.715
120.199
8.00002
-113.662
-236.876
-368.288
-503.645
-639.652
-777.078
-913.907
-1049.09
-1182.36
-1312.31
-1437.81
-1557.37
-1669.05
-1770.58
-1859.61
-1933.56
-1990.28
-2027.16
-2042.7
-2036.39
-2008.63
-1960.52
-1893.3
-1808.76
-1709.09
-1595.83
-1470.31
-1333.95
-1187.87
-1032.88
-869.188
-696.903
-513.864
-321.464
-108.624
86.8464
307.511
393.036
484.324
577.767
664.461
745.65
817.991
876.87
921.529
953.333
973.461
983.378
984.62
978.262
965.115
945.546
919.786
887.976
850.227
806.705
757.75
703.858
645.704
584.466
522.135
460.927
402.641
348.697
300.287
258.433
223.989
197.598
179.748
170.939
171.829
184.046
208.883
252.622
304.978
204.889
112.992
7.2744
-107.185
-222.795
-345.968
-472.659
-599.713
-727.969
-855.575
-981.616
-1105.96
-1227.44
-1345.12
-1457.78
-1563.73
-1660.95
-1747.31
-1820.4
-1878.15
-1918.11
-1938.53
-1938.7
-1918.71
-1879.26
-1821.13
-1745.6
-1654.5
-1549.29
-1431.24
-1301.68
-1161.77
-1012.34
-853.713
-686.119
-507.795
-320.347
-114.781
73.6587
289.63
370.322
456.648
545.161
627.414
704.659
773.743
830.232
873.373
904.527
924.786
935.544
938.296
934.075
923.64
907.333
885.326
857.682
824.407
785.551
741.312
692.045
638.283
581.059
522.241
463.952
407.927
355.592
308.201
266.843
232.442
205.73
187.28
177.656
177.529
188.445
211.515
251.956
299.568
192.127
105.373
5.61188
-102.269
-210.918
-326.581
-445.341
-564.219
-684.075
-803.198
-920.787
-1036.84
-1150.35
-1260.6
-1366.53
-1466.71
-1559.39
-1642.61
-1714.19
-1772.1
-1814.17
-1838.4
-1843.93
-1830.64
-1798.89
-1749.06
-1681.99
-1599.13
-1501.79
-1391.14
-1268.43
-1134.78
-991.061
-837.686
-675
-501.629
-319.381
-121.23
60.1661
272.231
348.498
430.264
514.238
592.392
665.974
731.993
786.2
827.857
858.282
878.517
889.882
893.837
891.38
883.239
869.742
851.03
827.113
797.922
763.408
723.647
678.857
629.424
576.227
521
465.763
412.174
361.645
315.467
274.781
240.577
213.666
194.702
184.312
183.177
192.759
213.995
251.104
294.122
179.589
97.571
3.28767
-98.526
-200.805
-309.565
-421.058
-532.43
-644.587
-755.903
-865.692
-974.042
-1080.1
-1183.27
-1282.73
-1377.22
-1465.22
-1545
-1614.55
-1671.96
-1715.25
-1742.35
-1752.26
-1744.67
-1719.68
-1677.37
-1618.18
-1543.18
-1453.48
-1350.13
-1234.25
-1106.94
-969.065
-821.116
-663.546
-495.364
-318.55
-127.918
46.436
255.423
327.616
405.174
484.946
559.291
629.458
692.589
744.62
784.815
814.463
834.549
846.334
851.239
850.236
844.032
832.953
817.12
796.517
771.024
740.514
704.959
664.451
619.237
570.041
518.449
466.362
415.357
366.812
322.028
282.189
248.337
221.354
201.97
190.87
188.742
196.967
216.313
250.081
288.666
167.395
89.7548
0.534269
-95.679
-192.084
-294.496
-399.293
-503.773
-608.841
-712.966
-815.538
-916.739
-1015.82
-1112.32
-1205.58
-1294.52
-1377.83
-1453.97
-1521.12
-1577.46
-1621.26
-1650.41
-1663.8
-1660.99
-1641.88
-1606.32
-1554.39
-1486.83
-1404.5
-1308.3
-1199.23
-1078.3
-946.379
-804.017
-651.765
-488.991
-317.836
-134.791
32.5398
239.273
307.703
381.358
457.225
528.023
594.981
655.389
705.341
744.109
772.948
792.796
804.846
810.49
810.684
806.113
797.105
783.781
766.108
743.938
717.09
685.45
649
607.859
562.596
514.639
465.767
417.464
371.055
327.836
289.011
255.667
228.743
209.037
197.289
194.194
201.045
218.459
248.904
283.225
155.622
82.0446
-2.47239
-93.494
-184.475
-281.017
-379.639
-477.762
-576.291
-673.777
-769.69
-864.252
-956.826
-1047.06
-1134.42
-1218
-1296.65
-1369.03
-1433.49
-1488.37
-1532.06
-1562.55
-1578.64
-1579.76
-1565.72
-1536.15
-1490.88
-1430.29
-1355.02
-1265.78
-1163.44
-1048.91
-923.036
-786.405
-639.659
-482.501
-317.21
-141.788
18.5569
223.831
288.765
358.786
431.006
498.488
562.437
620.268
668.235
705.61
733.615
753.149
765.349
771.565
772.737
769.537
762.3
751.155
736.064
716.865
693.34
665.312
632.676
595.428
553.99
509.634
464.006
418.493
374.351
332.848
295.197
262.512
235.779
215.855
203.529
199.499
204.971
220.425
247.59
277.827
144.329
74.5336
-5.60727
-91.7965
-177.745
-268.849
-361.752
-454
-546.474
-637.827
-727.572
-815.984
-902.493
-986.845
-1068.63
-1147.05
-1221.14
-1289.72
-1351.32
-1404.4
-1447.48
-1478.72
-1496.81
-1501.12
-1491.38
-1467.1
-1427.86
-1373.77
-1305.2
-1222.71
-1126.99
-1018.85
-899.077
-768.304
-627.235
-475.885
-316.645
-148.846
4.57019
209.115
270.792
337.413
406.223
470.594
531.708
587.099
633.162
669.185
696.351
715.52
727.767
734.417
736.387
734.339
728.618
719.36
706.534
689.977
669.451
644.733
615.644
582.084
544.334
503.511
461.127
418.457
376.684
337.032
300.701
268.82
242.41
222.375
209.545
204.622
208.721
222.204
246.156
272.496
133.55
67.2837
-8.76557
-90.4457
-171.724
-257.764
-345.362
-432.161
-519.035
-604.697
-688.729
-771.422
-852.285
-931.131
-1007.64
-1081.15
-1150.83
-1215.62
-1274.24
-1325.29
-1367.38
-1398.85
-1418.34
-1425.18
-1419.04
-1399.36
-1365.55
-1317.46
-1255.23
-1179.22
-1089.98
-988.18
-874.554
-749.738
-614.501
-469.129
-316.106
-155.903
-9.34286
195.131
253.772
317.204
382.811
444.257
502.692
555.769
600.009
634.714
661.045
679.805
692.026
698.999
701.622
700.537
696.106
688.48
677.636
663.418
645.583
623.879
598.07
567.972
533.748
496.361
457.183
417.382
378.052
340.36
305.481
274.541
248.584
228.548
215.293
209.527
212.272
223.789
244.616
267.257
123.307
60.344
-11.8742
-89.3349
-166.254
-247.579
-330.239
-411.977
-493.646
-574.04
-652.769
-730.152
-805.749
-879.443
-950.993
-1019.83
-1085.25
-1146.32
-1201.91
-1250.76
-1291.54
-1322.83
-1343.21
-1351.99
-1348.82
-1333.12
-1304.16
-1261.57
-1205.29
-1135.47
-1052.53
-956.991
-849.521
-730.743
-601.465
-462.221
-315.552
-162.892
-23.0968
181.882
237.673
298.113
360.711
419.398
475.289
526.167
568.659
602.097
627.595
645.919
658.053
665.255
668.401
668.126
664.799
658.58
649.467
637.314
621.882
602.903
580.104
553.236
522.353
488.277
452.239
415.3
378.461
342.819
309.505
279.634
254.253
234.324
220.729
214.179
215.601
225.174
242.986
262.131
113.605
53.7475
-14.8746
-88.3802
-161.219
-238.143
-316.193
-393.217
-470.051
-545.545
-619.346
-691.787
-762.485
-831.369
-898.254
-962.671
-1024
-1081.46
-1134.01
-1180.53
-1219.8
-1250.55
-1271.38
-1281.6
-1280.85
-1268.55
-1243.87
-1206.29
-1155.54
-1091.62
-1014.76
-925.383
-824.043
-711.349
-588.141
-455.14
-314.943
-169.744
-36.6099
169.357
222.473
280.092
339.849
395.927
449.407
498.194
539.019
571.228
595.9
613.769
625.772
633.129
636.697
637.097
634.709
629.707
622.1
611.762
598.468
581.943
561.889
538.01
510.271
479.358
446.372
412.26
377.929
344.399
312.748
284.057
259.37
239.656
225.809
218.539
218.683
226.354
241.278
257.137
104.449
47.5137
-17.7263
-87.5167
-156.533
-229.334
-303.076
-375.702
-448.028
-518.959
-588.178
-656.018
-722.146
-786.535
-849.045
-909.28
-966.719
-1020.67
-1070.22
-1114.36
-1151.95
-1181.89
-1202.82
-1214.04
-1215.22
-1205.77
-1184.85
-1151.79
-1106.17
-1047.81
-976.81
-893.446
-798.187
-691.605
-574.532
-447.878
-314.229
-176.389
-49.7956
157.541
208.137
263.094
320.163
373.772
424.964
471.754
510.985
542.007
565.871
583.273
595.107
602.559
606.463
607.428
605.838
601.882
595.586
586.843
575.443
561.117
543.552
522.421
497.618
469.707
439.659
408.314
376.484
345.106
315.19
287.779
263.894
244.501
230.491
222.572
221.496
227.322
239.501
252.292
95.8338
41.6506
-20.3967
-86.6913
-152.116
-221.05
-290.758
-359.273
-427.39
-494.064
-559.016
-622.572
-684.443
-744.628
-803.037
-859.33
-913.066
-963.64
-1010.25
-1051.98
-1087.79
-1116.71
-1137.44
-1149.29
-1151.96
-1144.91
-1127.26
-1098.25
-1057.33
-1004.2
-938.806
-861.295
-772.03
-671.544
-560.666
-440.412
-313.365
-182.768
-62.572
146.415
194.632
247.071
301.599
352.863
401.881
446.767
484.466
514.346
537.419
554.348
565.986
573.482
577.651
579.088
578.179
575.124
569.966
562.62
552.892
540.527
525.209
506.593
484.515
459.429
432.187
403.524
374.164
344.951
316.825
290.775
267.789
248.815
234.733
226.244
224.017
228.074
237.666
247.609
87.749
36.1678
-22.8695
-85.862
-147.912
-213.21
-279.132
-343.802
-407.981
-470.683
-531.652
-591.218
-649.112
-705.375
-759.938
-812.518
-862.744
-910.087
-953.831
-993.17
-1027.14
-1054.87
-1075.16
-1087.34
-1091.13
-1086.05
-1071.22
-1045.82
-1009.21
-960.956
-900.885
-829.03
-745.654
-651.222
-546.547
-432.73
-312.311
-188.809
-74.8687
135.953
181.924
231.981
284.094
333.133
380.084
423.149
459.381
488.158
510.461
526.917
538.338
545.842
550.215
552.044
551.713
549.434
545.264
539.138
530.883
520.26
506.963
490.635
471.069
448.624
424.04
397.959
371.011
343.955
317.651
293.026
271.022
252.56
238.499
229.522
226.225
228.603
235.776
243.095
80.1808
31.0607
-25.1284
-85.0016
-143.872
-205.751
-268.113
-329.174
-389.667
-448.656
-505.901
-561.741
-615.93
-668.521
-719.484
-768.578
-815.486
-859.745
-900.723
-937.696
-969.791
-996.216
-1015.89
-1028.15
-1032.75
-1029.26
-1016.85
-994.646
-961.941
-918.217
-863.184
-796.77
-719.135
-630.692
-532.199
-424.816
-311.005
-194.456
-86.6137
126.136
169.979
217.774
267.593
314.516
359.496
400.823
435.647
463.363
484.916
500.902
512.093
519.573
524.104
526.254
526.416
524.802
521.489
516.427
509.468
500.391
488.901
474.642
457.379
437.388
415.307
391.689
367.079
342.149
317.677
294.521
273.572
255.706
241.753
232.375
228.099
228.903
233.837
238.755
73.1144
26.3245
-27.1654
-84.0895
-139.958
-198.61
-257.624
-315.294
-372.33
-427.841
-481.608
-533.965
-584.691
-633.854
-681.445
-727.264
-771.04
-812.367
-850.689
-885.354
-915.577
-940.621
-959.532
-971.666
-976.804
-974.593
-964.231
-944.839
-915.666
-876.123
-825.832
-764.624
-692.568
-610.001
-517.645
-416.656
-309.413
-199.645
-97.7388
116.936
158.759
204.408
252.045
296.954
340.053
379.72
413.193
439.887
460.711
476.232
487.185
494.612
499.262
501.68
502.258
501.219
498.644
494.51
488.687
480.975
471.096
458.702
443.54
425.814
406.072
384.786
362.422
339.567
316.92
295.261
275.419
258.225
244.465
234.775
229.621
228.969
231.847
234.588
66.5312
21.9524
-28.979
-83.1084
-136.142
-191.749
-247.607
-302.089
-355.878
-408.13
-458.64
-507.739
-555.229
-601.184
-645.619
-688.365
-729.191
-767.74
-803.518
-835.946
-864.312
-887.935
-905.981
-917.826
-923.285
-922.069
-913.433
-896.505
-870.508
-834.808
-788.957
-732.703
-666.034
-589.216
-502.903
-408.241
-307.49
-204.326
-108.187
108.326
148.233
191.839
237.4
280.387
321.692
359.767
391.949
417.659
437.777
452.838
463.545
470.903
475.636
478.274
479.205
478.658
476.723
473.396
468.568
462.059
453.611
442.891
429.635
413.99
396.42
377.326
357.102
336.255
315.402
295.25
276.557
260.097
246.611
236.699
230.772
228.794
229.805
230.59
60.413
17.9329
-30.569
-82.0489
-132.4
-185.13
-238.01
-289.492
-340.232
-389.423
-436.883
-482.931
-527.393
-570.347
-611.828
-651.691
-689.74
-725.661
-759.017
-789.289
-815.834
-838.025
-855.129
-866.557
-872.16
-871.705
-864.51
-849.728
-826.574
-794.391
-752.679
-701.119
-639.621
-568.388
-488.002
-399.565
-305.198
-208.451
-117.907
100.281
138.368
180.029
223.607
264.764
304.353
340.905
371.847
396.61
416.045
430.657
441.115
448.388
453.174
455.99
457.222
457.094
455.714
453.088
449.128
443.676
436.496
427.273
415.74
401.994
386.429
369.382
351.18
332.259
313.156
294.501
276.982
261.31
248.17
238.127
231.539
228.37
227.707
226.752
54.7387
14.2537
-31.9387
-80.9041
-128.715
-178.722
-228.789
-277.442
-325.311
-371.628
-416.229
-459.421
-501.049
-541.199
-579.912
-617.073
-652.51
-685.952
-717.008
-745.212
-769.985
-790.75
-806.868
-817.788
-823.39
-823.5
-817.497
-804.573
-783.959
-754.98
-717.108
-669.969
-613.417
-547.58
-472.97
-390.619
-302.505
-211.976
-126.85
92.7729
129.126
168.935
210.623
250.03
287.981
323.075
352.824
376.679
395.453
409.626
419.831
427.005
431.824
434.784
436.267
436.501
435.596
433.579
430.376
425.852
419.792
411.902
401.918
389.898
376.173
361.024
344.721
327.631
310.219
293.037
276.702
261.857
249.131
239.043
231.907
227.691
225.544
223.06
49.4878
10.9015
-33.0943
-79.6707
-125.073
-172.503
-219.91
-265.895
-311.057
-354.673
-396.589
-437.104
-476.077
-513.602
-549.728
-584.357
-617.343
-648.451
-677.326
-703.556
-726.619
-745.982
-761.089
-771.432
-776.923
-777.438
-772.415
-761.097
-742.737
-716.67
-682.344
-639.356
-587.501
-526.85
-457.837
-381.412
-299.381
-214.867
-134.983
85.7763
120.479
158.52
198.403
236.138
272.523
306.217
334.824
357.803
375.938
389.681
399.635
406.7
411.531
414.606
416.3
416.842
416.349
414.857
412.314
408.601
403.527
396.819
388.224
377.767
365.721
352.321
337.788
322.426
306.631
290.885
275.729
261.741
249.485
239.437
231.868
226.75
223.309
219.5
44.6409
7.8613
-34.043
-78.3483
-121.466
-166.453
-211.346
-254.809
-297.423
-338.495
-377.889
-415.894
-452.382
-487.448
-521.15
-553.407
-584.094
-613.004
-639.822
-664.176
-685.595
-703.593
-717.69
-727.412
-732.703
-733.488
-729.268
-719.333
-702.972
-679.537
-648.478
-609.366
-561.954
-506.259
-442.636
-371.945
-295.812
-217.099
-142.274
79.2639
112.392
148.749
186.906
223.041
257.927
290.279
317.789
339.927
357.442
370.768
380.471
387.42
392.248
395.413
397.282
398.085
397.946
396.908
394.937
391.932
387.724
382.063
374.706
365.656
355.136
343.339
330.442
316.699
302.44
288.078
274.086
260.971
249.234
239.304
231.415
225.54
220.99
216.05
40.1756
5.11861
-34.7941
-76.9384
-117.886
-160.557
-203.067
-244.149
-284.359
-323.035
-360.06
-395.709
-429.866
-462.631
-494.066
-524.102
-552.633
-579.478
-604.357
-626.934
-646.785
-663.464
-676.56
-685.636
-690.667
-691.617
-688.047
-679.301
-664.708
-643.65
-615.588
-580.078
-536.847
-485.861
-427.404
-362.227
-291.786
-218.651
-148.704
73.211
104.838
139.585
176.093
210.696
244.146
275.211
301.666
322.994
339.912
352.831
362.286
369.113
373.921
377.154
379.169
380.195
380.358
379.711
378.236
375.847
372.396
367.658
361.404
353.614
344.473
334.137
322.746
310.507
297.695
284.657
271.799
259.562
248.385
238.644
230.543
224.055
218.577
212.691
36.0722
2.65774
-35.3571
-75.4447
-114.331
-154.804
-195.057
-233.887
-271.826
-308.248
-343.042
-376.48
-408.451
-439.06
-468.373
-496.331
-522.843
-547.752
-570.806
-591.706
-610.068
-625.481
-637.599
-646.021
-650.748
-651.779
-648.732
-641.005
-627.977
-609.062
-583.737
-551.564
-512.248
-465.714
-412.174
-352.277
-287.294
-219.512
-154.262
67.5928
97.7861
130.995
165.924
199.062
231.134
260.965
286.407
306.953
323.294
335.817
345.027
351.728
356.506
359.786
361.921
363.134
363.555
363.245
362.196
360.342
357.553
353.626
348.349
341.685
333.783
324.771
314.758
303.908
292.446
280.663
268.901
257.537
246.949
237.464
229.254
222.291
216.055
209.397
32.3106
0.463414
-35.7422
-73.8702
-110.797
-149.183
-187.298
-223.997
-259.791
-294.087
-326.784
-358.144
-388.067
-416.656
-443.982
-469.995
-494.619
-517.714
-539.056
-558.374
-575.328
-589.537
-600.707
-608.479
-612.872
-613.923
-611.295
-604.444
-592.795
-575.807
-552.979
-523.884
-488.217
-445.868
-396.986
-342.113
-282.345
-219.679
-158.943
62.3835
91.2091
122.945
156.364
188.099
218.851
247.494
271.962
291.757
307.54
319.677
328.644
335.215
339.952
343.265
345.495
346.865
347.504
347.482
346.801
345.41
343.196
339.98
335.565
329.903
323.112
315.292
306.53
296.954
286.746
276.144
265.431
254.926
244.948
235.774
227.55
220.245
213.414
206.147
28.871
-1.48126
-35.9597
-72.2207
-107.286
-143.687
-179.774
-214.457
-248.225
-280.516
-311.24
-340.647
-368.647
-395.347
-420.813
-445.006
-467.864
-489.262
-509
-526.834
-542.457
-555.526
-565.787
-572.921
-576.969
-577.992
-575.698
-569.598
-559.169
-543.91
-523.352
-497.088
-464.806
-426.372
-381.876
-331.76
-276.948
-219.161
-162.754
57.5609
85.0785
115.407
147.378
177.768
207.253
234.757
258.287
277.358
292.602
304.362
313.091
319.528
324.215
327.546
329.852
331.351
332.175
332.399
332.033
331.04
329.325
326.73
323.073
318.298
312.495
305.747
298.116
289.702
280.648
271.147
261.431
251.762
242.405
233.591
225.439
217.915
210.64
202.915
25.7339
-3.19051
-36.0215
-70.5026
-103.795
-138.312
-172.474
-205.248
-237.101
-267.501
-296.366
-323.938
-350.136
-375.064
-398.79
-421.284
-442.491
-462.302
-480.539
-496.983
-511.356
-523.352
-532.747
-539.266
-542.964
-543.923
-541.896
-536.443
-527.092
-513.384
-494.887
-471.213
-442.06
-407.269
-366.883
-321.245
-271.122
-217.97
-165.707
53.1019
79.3698
108.351
138.936
168.035
196.305
222.712
245.34
263.713
278.434
289.828
298.321
304.622
309.252
312.587
314.951
316.556
317.535
317.965
317.869
317.218
315.934
313.88
310.887
306.893
301.969
296.177
289.562
282.2
274.204
265.723
256.946
248.084
239.351
230.936
222.933
215.302
207.724
199.679
22.8807
-4.68014
-35.9382
-68.7224
-100.329
-133.054
-165.389
-196.355
-226.397
-255.013
-282.128
-307.976
-332.482
-355.75
-377.849
-398.753
-418.419
-436.749
-453.585
-468.729
-481.933
-492.92
-501.497
-507.427
-510.78
-511.654
-509.839
-504.943
-496.546
-484.229
-467.598
-446.291
-420.015
-388.599
-352.042
-310.602
-264.893
-216.129
-167.823
48.9851
74.0568
101.749
131.003
158.866
185.968
211.321
233.08
250.78
264.995
276.032
284.293
290.455
295.02
298.349
300.754
302.444
303.551
304.157
304.288
303.93
303.017
301.429
299.017
295.71
291.562
286.618
280.912
274.5
267.464
259.923
252.024
243.932
235.82
227.834
220.046
212.41
204.655
196.415
20.2928
-5.96469
-35.7209
-66.8868
-96.8878
-127.91
-158.51
-187.764
-216.094
-243.025
-268.492
-292.719
-315.638
-337.35
-357.927
-377.347
-395.574
-412.524
-428.053
-441.985
-454.097
-464.141
-471.95
-477.324
-480.342
-481.116
-479.471
-475.058
-467.505
-456.435
-441.49
-422.338
-398.7
-370.397
-337.391
-299.864
-258.293
-213.667
-169.129
45.1888
69.1167
95.5723
123.553
150.228
176.208
200.548
221.469
238.518
252.243
262.933
270.964
276.987
281.48
284.792
287.224
288.981
290.193
290.943
291.267
291.157
290.561
289.377
287.468
284.764
281.297
277.104
272.207
266.645
260.478
253.797
246.713
239.353
231.85
224.314
216.796
209.244
201.425
193.103
17.9534
-7.05928
-35.3801
-65.003
-93.4741
-122.877
-151.832
-179.462
-206.172
-231.514
-255.428
-278.131
-299.56
-319.817
-338.97
-357.005
-373.892
-389.555
-403.868
-416.672
-427.766
-436.933
-444.023
-448.874
-451.573
-452.24
-450.732
-446.741
-439.935
-429.983
-416.561
-399.367
-378.137
-352.691
-322.964
-289.066
-251.355
-210.619
-169.66
41.6929
64.5262
89.7975
116.556
142.091
166.993
190.357
210.47
226.891
240.141
250.491
258.295
264.176
268.594
271.88
274.326
276.133
277.428
278.299
278.783
278.883
278.556
277.718
276.246
274.065
271.195
267.663
263.483
258.678
253.294
247.394
241.062
234.391
227.48
220.408
213.205
205.814
198.03
189.725
15.8451
-7.97724
-34.9273
-63.0777
-90.0929
-117.956
-145.347
-171.439
-196.617
-220.458
-242.91
-264.179
-284.212
-303.105
-320.928
-337.669
-353.306
-367.773
-380.955
-392.711
-402.862
-411.213
-417.636
-422.001
-424.399
-424.957
-423.56
-419.939
-413.799
-404.848
-392.799
-377.378
-358.34
-335.507
-308.791
-278.246
-244.121
-207.028
-169.456
38.4784
60.2635
84.4003
109.985
134.426
158.291
180.715
200.05
215.863
228.651
238.67
246.249
251.988
256.324
259.575
262.025
263.868
265.228
266.195
266.813
267.087
266.99
266.448
265.35
263.623
261.274
258.321
254.772
250.641
245.956
240.763
235.119
229.093
222.753
216.151
209.297
202.13
194.468
186.267
13.952
-8.73224
-34.3728
-61.1179
-86.7467
-113.143
-139.05
-163.684
-187.414
-209.838
-230.911
-250.833
-269.556
-287.173
-303.753
-319.288
-333.762
-347.116
-359.248
-370.033
-379.31
-386.906
-392.713
-396.626
-398.743
-399.196
-397.893
-394.597
-389.051
-380.996
-370.184
-356.365
-339.316
-318.864
-294.903
-267.44
-236.634
-202.938
-168.56
35.5266
56.3079
79.357
103.816
127.206
150.074
171.592
190.175
205.4
217.74
227.434
234.793
240.386
244.636