/*--------------------------------*- C++ -*----------------------------------*\
| =========                 |                                                 |
| \\      /  F ield         | OpenFOAM: The Open Source CFD Toolbox           |
|  \\    /   O peration     | Version:  v1806                                 |
|   \\  /    A nd           | Web:      www.OpenFOAM.com                      |
|    \\/     M anipulation  |                                                 |
\*---------------------------------------------------------------------------*/
FoamFile
{
    version     2.0;
    format      ascii;
    class       volScalarField;
    location    "256";
    object      p;
}
// * * * * * * * * * * * * * * * * * * * * * * * * * * * * * * * * * * * * * //

dimensions      [0 2 -2 0 0 0 0];


internalField   nonuniform List<scalar> 
10720
(
1319.52
1532.97
1719.21
1849.22
1909.27
1916.62
1873.78
1766.32
1608.45
1418.21
1204.73
976.414
742.338
509.35
283.166
69.419
-129.321
-306.519
-461.041
-586.621
-682.561
-743.71
-774.203
-775.915
-760.16
-745.907
-732.352
-708.451
-674.113
-631.033
-579.528
-520.006
-452.809
-377.855
-294.734
-199.942
-89.4325
63.3594
276.855
1066.83
781.905
412.767
-13.8207
-474.998
-960.855
-1431.18
-1819.83
-2085.46
-2248.57
-2317.55
-2307.86
-2255.42
-2176.23
-2076.72
-1978.27
-1882.98
-1797.48
-1723.35
-1666.35
-1624.38
-1597.13
-1579.18
-1563.24
-1528.15
-1465.71
-1390.08
-1306.2
-1214.23
-1113.95
-1006.38
-892.489
-772.811
-646.848
-513.695
-369.009
-207.45
-2.01354
261.828
1384.14
1539.81
1675.28
1777.96
1835.14
1846.94
1809.86
1723.3
1595.67
1436.2
1251.74
1049.12
835.929
618.891
403.91
196.488
0.724784
-177.811
-336.131
-469.032
-574.265
-647.987
-692.364
-709.083
-707.644
-703.302
-696.353
-678.349
-649.118
-610.413
-562.704
-506.413
-441.93
-369.21
-287.857
-194.418
-84.9593
67.183
274.25
1208.68
1000.47
743.74
440.01
100.845
-263.901
-630.434
-965.956
-1246.6
-1470.48
-1632.08
-1728.53
-1776.11
-1789.45
-1776.66
-1749.3
-1711.48
-1669.32
-1627.73
-1592.84
-1565.23
-1545.91
-1531.61
-1516.27
-1483.72
-1426.96
-1356.78
-1277.86
-1190.42
-1094.27
-990.366
-879.649
-762.632
-638.861
-507.442
-364.093
-203.615
1.20931
259.095
1339.08
1475.59
1593.69
1683.25
1735.78
1751.11
1725.2
1657.07
1550.43
1411.06
1245
1058.46
858.386
651.45
443.807
241.109
48.3223
-129.385
-288.011
-423.034
-531.485
-610.29
-660.22
-683.334
-687.548
-685.495
-679.392
-662.995
-635.543
-598.557
-552.543
-497.836
-434.78
-363.304
-282.969
-190.336
-81.5144
69.6165
270.543
1185.87
1005.55
783.901
516.794
215.624
-112.561
-452.63
-780.324
-1071.32
-1311.02
-1490.48
-1608.79
-1677.52
-1709.05
-1711.65
-1694.38
-1664.31
-1628
-1590.92
-1558
-1531.16
-1511.38
-1496.18
-1480.02
-1449.91
-1398.46
-1332.83
-1257.67
-1173.49
-1080.24
-978.849
-870.274
-755.048
-632.769
-502.542
-360.143
-200.467
3.21732
255.591
1281.34
1396.77
1498.61
1577.52
1626.28
1644.15
1626.94
1573.47
1485.58
1367.16
1222.72
1057.15
876.227
685.81
491.668
299.336
113.934
-59.4603
-216.365
-352.39
-464.088
-548.546
-605.639
-637.4
-650.057
-653.929
-652.164
-640.073
-616.462
-582.724
-539.522
-487.215
-426.176
-356.371
-277.373
-185.806
-77.89
71.6891
266.473
1152.74
1002.61
817.37
594.249
342.576
65.497
-225.486
-510.472
-771.272
-996.195
-1178.36
-1316.33
-1415.53
-1481.62
-1519.26
-1534.44
-1533.33
-1521.72
-1504.79
-1487.22
-1471.79
-1459.69
-1449.26
-1435.93
-1409.78
-1364.03
-1303.51
-1232.77
-1152.57
-1062.92
-964.693
-858.846
-745.922
-625.56
-496.882
-355.748
-197.211
4.69551
251.091
1209.18
1310.22
1400.33
1470.91
1516.26
1535.64
1525.09
1483.46
1411.24
1310.85
1185.44
1038.67
875.334
700.462
519.334
337.277
159.467
-9.01657
-163.418
-299.359
-413.043
-501.592
-564.277
-602.694
-621.751
-629.901
-630.812
-621.299
-600.123
-568.565
-527.39
-476.949
-417.59
-349.266
-271.527
-181.032
-74.1318
73.6252
261.957
1096.68
966.316
805.227
610.415
390.664
146.797
-112.677
-371.377
-614.765
-833.167
-1019.6
-1170.08
-1284.95
-1366.9
-1420.49
-1450.71
-1463.13
-1463.04
-1455.28
-1444.21
-1432.88
-1422.7
-1412.66
-1399.1
-1374.29
-1332.15
-1275.51
-1208.37
-1131.58
-1045.16
-949.883
-846.669
-736.04
-617.657
-490.634
-350.92
-193.772
5.90138
245.502
1134.64
1223.76
1304.07
1367.71
1409.9
1429.93
1424.18
1391.67
1332.16
1247.17
1138.82
1009.76
863.805
705.129
538.326
368.307
200.069
38.5322
-111.488
-245.559
-359.743
-451.068
-518.311
-562.543
-587.68
-600.548
-604.901
-598.735
-580.81
-552.179
-513.639
-465.542
-408.22
-341.633
-265.335
-176.062
-70.3357
75.2658
256.918
1035.68
921.795
780.877
610.125
417.878
203.52
-26.2858
-257.347
-477.657
-679.612
-856.737
-1004.94
-1123.88
-1215.54
-1282.9
-1328.95
-1357.43
-1372.34
-1377.72
-1377.42
-1374.39
-1370.19
-1364.3
-1353.84
-1332.82
-1295.91
-1244.45
-1181.83
-1109.07
-1026.3
-934.256
-833.858
-725.647
-609.333
-484.061
-345.885
-190.329
6.65544
238.866
1060.48
1140
1212.2
1269.99
1309.18
1329.18
1326.92
1301.44
1252.18
1180.05
1086.47
973.236
843.303
700.029
547.307
389.548
231.385
77.5393
-67.2304
-198.499
-312.249
-405.384
-476.286
-525.493
-556.02
-573.242
-580.765
-577.54
-562.47
-536.416
-500.216
-454.244
-398.818
-333.895
-259.023
-171.009
-66.5647
76.5738
251.431
972.298
871.395
746.406
594.626
424.03
233.136
27.1877
-181.313
-382.238
-569.723
-738.214
-883.74
-1005.54
-1104.24
-1180.97
-1237.57
-1276.9
-1302.19
-1316.89
-1324.27
-1327.08
-1326.86
-1323.47
-1314.66
-1295.86
-1262.51
-1215
-1156.07
-1086.79
-1007.32
-918.338
-820.681
-714.883
-600.676
-477.219
-340.694
-186.92
6.92436
231.339
988.995
1060.45
1125.78
1178.5
1214.85
1234.41
1234.6
1214.5
1173.44
1111.99
1031.04
931.788
816.473
687.718
548.744
403.382
255.832
110.521
-27.9821
-155.348
-267.528
-361.327
-434.816
-488.025
-523.163
-544.433
-555.129
-554.9
-542.811
-519.52
-485.852
-442.191
-388.831
-325.721
-252.41
-165.799
-62.8068
77.5449
245.552
909.829
819.698
707.95
572.014
419.492
248.419
63.0476
-125.408
-308.214
-480.761
-638.279
-777.102
-896.422
-996.291
-1077.32
-1140.81
-1188.64
-1223.02
-1246.49
-1261.67
-1270.87
-1275.55
-1275.79
-1269.92
-1254.41
-1225.43
-1182.62
-1128.03
-1062.76
-987.023
-901.41
-806.742
-703.549
-591.603
-470.099
-335.367
-183.56
6.74632
223.115
921.023
985.662
1045.08
1093.34
1127.03
1145.88
1147.76
1131.79
1097.31
1044.69
974.476
887.418
785.186
669.798
543.842
410.579
273.733
137.347
5.71339
-116.991
-226.752
-320.308
-395.493
-451.872
-490.952
-515.941
-529.692
-532.323
-523.085
-502.472
-471.273
-429.889
-378.589
-317.315
-245.616
-160.503
-59.11
78.153
239.281
849.464
768.319
667.634
544.948
407.542
253.108
85.1964
-86.0638
-252.924
-411.778
-558.565
-689.998
-805.455
-904.811
-988.265
-1056.48
-1110.55
-1151.87
-1182.33
-1203.96
-1218.64
-1227.63
-1231.14
-1227.89
-1215.16
-1189.79
-1151.01
-1100.31
-1038.7
-966.464
-884.109
-792.394
-691.829
-582.206
-462.749
-329.948
-180.289
6.1255
214.34
856.981
915.755
970.024
1014.33
1045.55
1063.55
1066.53
1053.74
1024.57
979.233
918.109
841.616
750.997
647.762
533.953
412.306
286.028
158.751
34.4369
-82.9374
-189.487
-281.93
-357.909
-416.598
-458.897
-487.174
-503.806
-509.192
-502.747
-484.822
-456.136
-417.089
-367.927
-308.574
-238.587
-155.099
-55.4755
78.3964
232.635
791.932
718.438
627.172
515.783
391.232
251.046
98.188
-58.03
-210.673
-356.863
-493.125
-616.489
-726.589
-823.306
-906.608
-976.849
-1034.68
-1080.97
-1116.94
-1144.04
-1163.68
-1176.85
-1183.76
-1183.46
-1173.82
-1152.25
-1117.7
-1071.11
-1013.41
-944.87
-865.955
-777.355
-679.563
-572.401
-455.134
-324.431
-177.123
5.04955
205.084
796.938
850.625
900.382
941.13
970.054
987.134
990.814
980.501
955.603
916.305
862.87
795.499
715.103
622.802
520.183
409.485
293.435
175.237
58.4951
-53.0881
-155.802
-246.393
-322.377
-382.596
-427.437
-458.571
-477.876
-485.877
-482.114
-466.82
-440.625
-403.921
-356.926
-299.55
-231.352
-149.605
-51.9227
78.2779
225.631
737.528
670.604
587.445
485.785
372.278
244.365
104.581
-38.4892
-178.55
-313.27
-439.617
-554.958
-659.161
-752.2
-833.964
-904.692
-964.74
-1014.5
-1054.71
-1086.27
-1110.16
-1127.1
-1137.24
-1139.8
-1133.09
-1114.98
-1084.33
-1041.64
-987.686
-922.762
-847.263
-761.802
-666.847
-562.237
-447.277
-318.833
-174.088
3.51337
195.389
740.818
790.03
835.801
873.357
900.15
916.287
920.385
911.984
890.569
856.298
809.374
749.864
678.441
595.914
503.496
403.004
296.714
187.409
78.3115
-27.174
-125.548
-213.64
-288.901
-349.913
-396.635
-430.158
-451.879
-462.327
-461.127
-448.406
-424.692
-390.347
-345.562
-290.228
-223.909
-144.031
-48.4627
77.8015
218.299
686.335
625.131
549.011
455.825
351.904
234.679
106.345
-25.1527
-154.019
-278.341
-395.46
-503.015
-601.052
-689.672
-768.803
-838.629
-899.348
-951.072
-994.174
-1029.13
-1056.53
-1076.78
-1089.95
-1095.35
-1091.58
-1076.87
-1050.05
-1011.27
-961.113
-899.868
-827.864
-745.64
-653.627
-551.689
-439.174
-313.163
-171.197
1.52686
185.295
688.452
733.719
775.938
810.615
835.435
850.632
854.944
848.029
829.47
799.409
758.016
705.283
641.712
567.881
484.699
393.624
296.53
195.803
94.2861
-4.93334
-98.6021
-183.668
-257.575
-318.71
-366.683
-402.12
-425.971
-438.674
-439.898
-429.666
-408.395
-376.408
-333.862
-280.626
-216.271
-138.389
-45.106
76.98
210.669
638.327
582.127
512.187
426.435
330.918
223.061
104.811
-16.4297
-135.319
-250.249
-358.864
-459.021
-550.914
-634.782
-710.607
-778.613
-838.917
-891.465
-936.378
-973.822
-1004.03
-1027.13
-1043.05
-1051.14
-1050.18
-1038.67
-1015.45
-980.423
-933.982
-876.373
-807.868
-728.925
-639.934
-540.77
-430.834
-307.43
-168.461
-0.898872
174.852
639.645
681.41
720.442
752.51
775.513
789.79
794.175
788.429
772.228
745.706
709.028
662.142
605.437
539.319
464.453
381.995
293.485
200.936
106.83
13.932
-74.7753
-156.395
-228.405
-289.059
-337.699
-374.576
-400.245
-414.984
-418.475
-410.631
-391.757
-362.119
-321.836
-270.752
-208.448
-132.688
-41.8659
75.8285
202.772
593.385
541.617
477.129
397.961
309.855
210.288
100.991
-11.1303
-121.092
-227.545
-328.348
-421.556
-507.475
-586.454
-658.553
-724.054
-783.074
-835.477
-881.225
-920.258
-952.539
-977.969
-996.307
-1006.89
-1008.6
-1000.13
-980.358
-948.982
-906.21
-852.229
-787.25
-711.646
-625.761
-529.482
-422.261
-301.643
-165.888
-3.73455
164.093
594.184
632.811
668.976
698.673
720.015
733.402
737.757
732.943
718.696
695.166
662.529
620.708
570.008
510.713
443.305
368.698
288.139
203.311
116.352
29.7129
-53.8871
-131.739
-201.399
-261.04
-309.808
-347.661
-374.816
-391.354
-396.937
-391.363
-374.821
-347.511
-309.504
-260.622
-200.452
-126.943
-38.7493
74.3621
194.647
551.376
503.544
443.916
370.61
289.096
196.905
95.5955
-8.35946
-110.312
-209.083
-302.734
-389.466
-469.68
-543.803
-611.96
-674.523
-731.626
-783.138
-828.928
-868.788
-902.486
-929.726
-950.123
-962.961
-967.164
-961.53
-944.998
-917.116
-877.92
-827.519
-766.06
-693.832
-611.125
-517.834
-413.466
-295.81
-163.485
-6.95811
153.066
551.846
587.648
621.225
648.772
668.59
681.119
685.38
681.311
668.701
647.722
618.561
581.135
535.694
482.436
421.707
354.219
280.974
203.373
123.239
42.7253
-35.7193
-109.583
-176.528
-234.702
-283.11
-321.498
-349.797
-367.879
-375.362
-371.921
-357.633
-332.616
-296.893
-250.255
-192.299
-121.165
-35.7658
72.6044
186.333
512.145
467.834
412.548
344.499
268.882
183.298
89.1539
-7.45688
-102.185
-193.99
-281.094
-361.824
-436.636
-506.019
-570.172
-629.527
-684.285
-734.323
-779.502
-819.519
-854.02
-882.56
-904.622
-919.431
-925.904
-922.903
-909.408
-884.863
-849.145
-802.271
-744.32
-675.498
-596.037
-505.836
-404.456
-289.941
-161.254
-10.534
141.814
512.424
545.679
576.907
602.494
620.913
632.63
636.756
633.281
622.054
603.266
577.108
543.51
502.686
454.77
400.007
338.951
272.403
201.519
127.847
53.2618
-20.0532
-89.7924
-153.742
-210.062
-257.68
-296.187
-325.29
-344.652
-353.828
-352.372
-340.242
-317.473
-284.027
-239.67
-184.007
-115.367
-32.9184
70.5796
177.868
475.528
434.384
383.005
319.695
249.375
169.743
82.0669
-7.91562
-96.1005
-181.574
-262.68
-337.853
-407.589
-472.424
-532.598
-588.621
-640.742
-688.892
-732.94
-772.559
-807.316
-836.673
-860.016
-876.492
-884.999
-884.401
-873.724
-852.334
-819.969
-776.548
-722.075
-656.675
-580.519
-493.503
-395.244
-284.043
-159.193
-14.4277
130.387
475.718
506.663
535.749
559.551
576.681
587.644
591.605
588.612
578.565
561.665
538.12
507.87
471.104
427.918
378.481
323.227
262.788
198.116
130.518
61.6152
-6.66283
-72.2133
-132.962
-187.122
-233.578
-271.824
-301.397
-321.769
-332.42
-332.785
-322.705
-302.123
-270.941
-228.894
-175.593
-109.562
-30.2113
68.3168
169.299
441.362
403.079
355.236
296.216
230.686
156.436
74.6256
-9.33556
-91.5809
-171.278
-246.882
-316.921
-381.918
-442.425
-498.725
-551.376
-600.696
-646.665
-689.186
-727.949
-762.495
-792.225
-816.461
-834.282
-844.557
-846.127
-838.042
-819.616
-790.466
-750.408
-699.37
-637.396
-564.592
-480.851
-385.843
-278.122
-157.3
-18.5964
118.844
441.537
470.38
497.514
519.68
535.635
545.887
549.669
547.072
538.042
522.783
501.518
474.207
441.021
402.031
357.352
307.321
252.44
193.488
131.562
68.0569
4.67291
-56.6882
-114.107
-165.863
-210.841
-248.486
-278.209
-299.323
-311.221
-313.233
-305.081
-286.615
-257.672
-217.953
-167.079
-103.763
-27.6448
65.847
160.672
409.492
373.805
329.175
274.054
212.879
143.521
67.0524
-11.4221
-88.2446
-162.656
-233.206
-298.505
-359.084
-415.503
-468.077
-517.4
-563.84
-607.441
-648.152
-685.699
-719.635
-749.344
-774.11
-792.955
-804.719
-808.208
-802.481
-786.814
-760.722
-723.922
-676.26
-617.701
-548.287
-467.9
-376.264
-272.184
-155.565
-22.9986
107.239
409.705
436.634
461.981
482.65
497.526
507.116
510.712
508.447
500.296
486.471
467.211
442.49
412.473
377.213
336.784
291.455
241.618
187.911
131.254
72.8462
14.1718
-43.057
-97.0751
-146.25
-189.492
-226.235
-255.809
-277.401
-290.314
-293.793
-287.435
-271.001
-244.258
-206.878
-158.488
-97.9823
-25.2169
63.2035
152.032
379.77
346.45
304.749
253.187
195.981
131.094
59.5097
-13.9419
-85.798
-155.359
-221.262
-282.18
-338.639
-391.216
-440.237
-486.322
-529.878
-571.005
-609.711
-645.776
-678.779
-708.118
-733.073
-752.632
-765.607
-770.759
-767.15
-754.029
-730.826
-697.162
-652.802
-597.634
-531.634
-454.675
-366.526
-266.234
-153.978
-27.5872
95.6291
380.064
405.237
428.944
448.244
462.128
471.104
474.518
472.532
465.148
452.588
435.098
412.67
385.463
353.521
316.896
275.796
230.532
181.627
129.85
76.2245
22.047
-31.1492
-81.7503
-128.224
-169.531
-205.114
-234.268
-256.087
-269.782
-274.54
-269.834
-255.335
-230.746
-195.704
-149.843
-92.2318
-22.9221
60.4227
143.429
352.059
320.902
281.881
233.581
180.01
119.217
52.1173
-16.724
-84.0181
-149.114
-210.726
-267.594
-320.228
-369.204
-414.856
-457.82
-498.536
-537.15
-573.73
-608.117
-639.933
-668.613
-693.452
-713.432
-727.335
-733.896
-732.165
-721.369
-700.873
-670.21
-629.063
-577.247
-514.673
-441.2
-356.641
-260.273
-152.52
-32.3119
84.0732
352.461
376.022
398.222
416.264
429.239
437.645
440.884
439.135
432.426
420.987
405.069
384.679
359.974
330.994
297.774
260.482
219.362
174.842
127.565
78.405
28.4938
-20.8032
-68.017
-111.721
-150.942
-185.156
-213.647
-235.453
-249.706
-255.553
-252.348
-239.677
-217.183
-184.468
-141.171
-86.524
-20.7543
57.5425
134.912
326.227
297.053
260.492
215.191
164.962
107.934
44.9629
-19.6253
-82.7132
-143.688
-201.336
-254.451
-303.53
-349.135
-391.609
-431.593
-469.548
-505.665
-540.065
-572.641
-603.077
-630.858
-655.317
-675.446
-690.008
-697.726
-697.632
-688.939
-670.959
-643.148
-605.113
-556.595
-497.445
-427.505
-346.629
-254.304
-151.176
-37.1242
72.6342
326.754
348.836
369.645
386.533
398.673
406.552
409.626
408.082
401.973
391.532
377.017
358.447
335.977
309.647
279.482
245.618
208.25
167.726
124.589
79.5833
33.6968
-11.8579
-55.752
-96.6663
-133.698
-166.372
-193.99
-215.563
-230.162
-236.906
-235.046
-224.09
-203.621
-173.209
-132.498
-80.8697
-18.7047
54.5977
126.527
302.154
274.802
240.504
197.971
150.821
97.2667
38.1129
-22.5439
-81.7366
-138.9
-192.873
-242.506
-288.281
-330.744
-370.23
-407.384
-442.684
-476.355
-508.562
-539.252
-568.171
-594.866
-618.72
-638.755
-653.724
-662.353
-663.658
-656.845
-641.183
-616.066
-581.027
-535.74
-479.997
-413.623
-336.506
-248.327
-149.92
-41.9711
61.37
302.815
323.534
343.062
358.888
370.259
377.654
380.57
379.208
373.637
364.092
350.834
333.894
313.426
289.475
262.055
231.282
197.31
160.429
121.093
79.941
37.8289
-4.16008
-44.833
-82.9755
-117.757
-148.764
-175.335
-196.477
-211.223
-218.674
-217.999
-208.636
-190.113
-161.97
-123.854
-75.2808
-16.7615
51.6278
118.322
279.722
254.053
221.844
181.869
137.564
87.2273
31.6112
-25.3961
-80.9816
-134.606
-185.167
-231.564
-274.264
-313.792
-350.48
-384.965
-417.729
-449.03
-479.067
-507.84
-535.153
-560.62
-583.683
-603.41
-618.555
-627.866
-630.34
-625.186
-611.646
-589.053
-556.884
-514.747
-462.379
-399.588
-326.292
-242.34
-148.728
-46.8004
50.3417
280.525
299.984
318.329
333.174
343.839
350.79
353.56
352.359
347.275
338.539
326.413
310.94
292.273
270.46
245.513
217.53
186.635
153.07
117.219
79.6286
41.0451
2.42972
-35.1406
-70.5574
-103.066
-132.317
-157.698
-178.236
-192.946
-200.926
-201.277
-193.381
-176.715
-150.793
-115.266
-69.7658
-14.9134
48.6695
110.343
258.828
234.712
204.437
166.836
125.169
77.8181
25.4886
-28.1285
-80.3572
-130.687
-178.072
-221.46
-261.295
-298.084
-332.151
-364.127
-394.49
-423.516
-451.434
-478.295
-503.959
-528.098
-550.222
-569.454
-584.572
-594.346
-597.774
-594.061
-582.44
-562.202
-532.764
-493.683
-444.647
-385.44
-316.004
-236.342
-147.571
-51.5601
39.6068
259.774
278.067
295.319
309.259
319.273
325.816
328.451
327.398
322.756
314.753
303.651
289.503
272.461
252.576
229.861
204.399
176.294
145.748
113.087
78.7812
43.4835
8.04641
-26.5598
-59.3247
-89.5712
-117.011
-141.094
-160.88
-175.389
-183.725
-184.949
-178.388
-163.483
-139.725
-106.763
-64.3376
-13.145
45.7589
102.63
239.37
216.694
188.212
152.817
113.601
69.0289
19.7643
-30.6919
-79.7914
-127.05
-171.472
-212.055
-249.222
-283.459
-315.079
-344.697
-372.793
-399.65
-425.525
-450.503
-474.503
-497.25
-518.325
-536.915
-551.823
-561.863
-566.041
-563.565
-553.664
-535.602
-508.753
-472.621
-426.853
-371.215
-305.665
-230.329
-146.422
-56.1989
29.2214
240.459
257.673
273.909
287.014
296.429
302.596
305.11
304.194
299.955
292.619
282.449
269.501
253.929
235.789
215.091
191.911
166.336
138.54
108.798
77.5164
45.2691
12.8146
-18.9768
-49.1858
-77.2051
-102.814
-125.52
-144.436
-158.596
-167.131
-169.076
-163.722
-150.473
-128.807
-98.3781
-59.0042
-11.4439
42.9257
95.2233
221.255
199.915
173.103
139.76
102.83
60.8479
14.4451
-33.0556
-79.2313
-123.621
-165.274
-203.237
-237.913
-269.768
-299.105
-326.518
-352.479
-377.284
-401.201
-424.354
-446.698
-468.022
-487.972
-505.798
-520.345
-530.477
-535.213
-533.781
-525.409
-509.347
-484.934
-451.635
-409.059
-356.955
-295.294
-224.297
-145.248
-60.6717
19.2374
222.485
238.696
253.991
266.323
275.187
281.008
283.414
282.626
278.756
272.033
262.711
250.856
236.619
220.058
201.189
180.078
156.802
131.509
104.436
75.9362
46.5125
16.844
-12.2896
-40.0508
-65.9036
-89.6834
-110.965
-128.916
-142.608
-151.197
-153.72
-149.441
-137.742
-118.088
-90.1373
-53.7765
-9.79819
40.2036
88.1551
204.398
184.302
159.043
127.617
92.819
53.2577
9.53426
-35.1992
-78.6358
-120.338
-159.402
-194.916
-227.267
-256.896
-284.101
-309.454
-333.418
-356.288
-378.346
-399.738
-420.462
-440.361
-459.133
-476.103
-490.165
-500.232
-505.358
-504.786
-497.758
-483.52
-461.39
-430.798
-391.324
-342.703
-284.909
-218.244
-144.023
-64.9261
9.7042
205.765
221.043
235.462
247.078
255.435
260.94
263.247
262.579
259.053
252.892
244.346
233.488
220.466
205.342
188.131
168.901
147.715
124.702
100.069
74.1239
47.3111
20.2347
-6.39989
-31.8373
-55.601
-77.5789
-97.4114
-114.329
-127.452
-135.968
-138.936
-135.604
-125.342
-107.611
-82.0715
-48.663
-8.18965
37.6176
81.4558
188.717
169.78
145.97
116.337
83.5341
46.2403
5.02792
-37.1074
-77.9745
-117.156
-153.792
-187.015
-217.193
-244.748
-269.962
-293.392
-315.485
-336.539
-356.839
-376.552
-395.707
-414.193
-431.763
-447.811
-461.289
-471.164
-476.526
-476.649
-470.792
-458.206
-438.199
-410.184
-373.71
-328.501
-274.536
-212.165
-142.71
-68.9232
0.666618
190.215
204.624
218.227
229.182
237.069
242.284
244.504
243.949
240.743
235.101
227.268
217.322
205.41
191.593
175.894
158.372
139.088
118.153
95.7497
72.149
47.7439
23.0766
-1.22078
-24.461
-46.2252
-66.4492
-84.8317
-100.672
-113.146
-121.479
-124.77
-122.263
-113.325
-97.417
-74.2089
-43.6731
-6.6107
35.1935
75.1505
174.136
156.282
133.827
105.873
74.9382
39.7724
0.918489
-38.7744
-77.2265
-114.04
-148.396
-179.471
-207.615
-233.234
-256.594
-278.231
-298.579
-317.931
-336.577
-354.697
-372.345
-389.45
-405.816
-420.903
-433.72
-443.293
-448.76
-449.427
-444.579
-433.481
-415.442
-389.861
-356.276
-314.393
-264.194
-206.056
-141.286
-72.621
-7.83787
175.76
189.357
202.201
212.542
219.994
224.943
227.087
226.641
223.732
218.57
211.395
202.286
191.388
178.766
164.443
148.479
130.927
111.888
91.5231
70.0728
47.8849
25.4477
3.33092
-17.8457
-37.7112
-56.2416
-73.1948
-87.9354
-99.701
-107.76
-111.264
-109.466
-101.737
-87.5486
-66.5759
-38.8167
-5.04918
32.9495
69.2567
160.586
143.743
122.558
96.1782
66.9973
33.8301
-2.80343
-40.1995
-76.3785
-110.963
-143.175
-172.236
-198.476
-222.283
-243.916
-263.883
-282.606
-300.371
-317.467
-334.083
-350.296
-366.066
-381.243
-395.346
-407.449
-416.632
-422.094
-423.171
-419.181
-409.415
-393.189
-369.901
-339.079
-300.422
-253.904
-199.916
-139.725
-75.9853
-15.777
162.326
175.166
187.301
197.072
204.124
208.828
210.905
210.563
207.933
203.217
196.647
188.309
178.342
166.812
153.746
139.203
123.232
105.923
87.4223
67.9419
47.7937
27.4162
7.3247
-11.9202
-29.9941
-46.906
-62.4649
-76.1015
-87.1186
-94.8312
-98.4522
-97.2532
-90.6205
-78.0414
-59.1984
-34.1038
-3.49656
30.9009
63.7864
148
132.104
112.108
87.2086
59.6755
28.3891
-6.15284
-41.3842
-75.4205
-107.907
-138.103
-165.271
-189.728
-211.842
-231.861
-250.275
-267.485
-283.773
-299.422
-314.627
-329.48
-343.97
-357.986
-371.102
-382.457
-391.185
-396.549
-397.92
-394.654
-386.072
-371.508
-350.368
-322.176
-286.628
-243.689
-193.744
-138
-78.9845
-23.1236
149.848
161.979
173.452
182.694
189.374
193.854
195.871
195.631
193.262
188.961
182.953
175.324
166.212
155.684
143.769
130.523
115.995
100.268
83.4697
65.7941
47.5191
29.0409
10.8253
-6.62115
-23.0136
-38.3897
-52.6031
-65.1483
-75.3936
-82.7052
-86.3594
-85.6592
-80.0136
-68.9294
-52.1
-29.5421
-1.94756
29.0593
58.7478
136.316
121.308
102.429
78.9205
52.9384
23.4242
-9.1467
-42.3328
-74.3493
-104.858
-133.155
-158.543
-181.328
-201.86
-220.376
-237.345
-253.15
-268.064
-282.367
-296.252
-309.826
-323.098
-335.992
-348.131
-358.72
-366.945
-372.137
-373.705
-371.042
-363.506
-350.458
-331.32
-305.621
-273.053
-233.57
-187.541
-136.098
-81.5958
-29.8585
138.263
149.729
160.583
169.332
175.668
179.943
181.909
181.765
179.641
175.727
170.24
163.268
154.943
145.334
134.472
122.415
109.205
94.9219
79.6819
63.6582
47.1035
30.3736
13.8905
-1.88683
-16.7108
-30.6402
-43.5677
-55.0486
-64.5143
-71.3859
-75.0036
-74.7111
-69.9466
-60.2417
-45.3019
-25.1431
-0.39742
27.4309
54.1408
125.476
111.301
93.472
71.2735
46.7525
18.9092
-11.7991
-43.0557
-73.1641
-101.805
-128.312
-152.028
-173.243
-192.295
-209.411
-225.036
-239.537
-253.178
-266.229
-278.887
-291.262
-303.384
-315.203
-326.39
-336.209
-343.904
-348.863
-350.543
-348.376
-341.762
-330.094
-312.814
-289.463
-259.733
-223.569
-181.312
-134
-83.7993
-35.971
127.511
138.356
148.63
156.919
162.936
167.022
168.943
168.893
167.001
163.448
158.445
152.079
144.48
135.716
125.821
114.85
102.848
89.8849
76.0694
61.5586
46.5794
31.4561
16.5692
2.33419
-11.0325
-23.6077
-35.3171
-45.7715
-54.4638
-60.8695
-64.3946
-64.4288
-60.4451
-52.0035
-38.8231
-20.9149
1.15303
26.0161
49.9611
115.425
102.033
85.1918
64.2282
41.0854
14.8196
-14.1292
-43.5609
-71.8672
-98.7441
-123.563
-145.705
-165.45
-183.119
-198.929
-213.304
-226.596
-239.059
-250.951
-262.469
-273.726
-284.768
-295.566
-305.831
-314.891
-322.039
-326.724
-328.446
-326.684
-320.878
-310.459
-294.896
-273.745
-246.705
-213.708
-175.058
-131.699
-85.5826
-41.4523
117.54
127.8
137.531
145.391
151.112
155.023
156.907
156.947
155.272
152.056
147.503
141.699
134.77
126.784
117.777
107.803
96.9047
85.1499
72.6376
59.5103
45.9749
32.3245
18.9047
6.09091
-5.92885
-17.2436
-27.8078
-37.2825
-45.2189
-51.1465
-54.5352
-54.8247
-51.5273
-44.2339
-32.6798
-16.8669
2.70197
24.8132
46.1988
106.111
93.4561
77.5454
57.7467
35.9047
11.1294
-16.1559
-43.8605
-70.4631
-95.6746
-118.902
-139.563
-157.927
-174.302
-188.896
-202.112
-214.285
-225.657
-236.478
-246.941
-257.16
-267.192
-277.026
-286.41
-294.727
-301.326
-305.708
-307.419
-305.982
-300.882
-291.589
-277.606
-258.507
-234.001
-204.007
-168.789
-129.188
-86.9404
-46.3028
108.297
118.009
127.23
134.689
140.133
143.885
145.735
145.861
144.391
141.491
137.357
132.074
125.764
118.495
110.304
101.244
91.3574
80.7078
69.3871
57.5254
45.3108
33.0101
20.9351
9.42616
-1.35328
-11.5017
-20.9967
-29.5454
-36.7528
-42.2012
-45.4204
-45.9033
-43.2044
-36.9474
-26.8843
-13.008
4.24609
23.8149
42.8397
97.4868
85.5259
70.4922
51.7935
31.1802
7.81434
-17.8968
-43.9687
-68.9595
-92.5966
-114.322
-133.59
-150.659
-165.824
-179.285
-191.425
-202.562
-212.928
-222.762
-232.249
-241.508
-250.601
-259.531
-268.08
-275.68
-281.734
-285.798
-287.455
-286.277
-281.792
-273.513
-260.977
-243.783
-221.649
-194.486
-162.514
-126.468
-87.8694
-50.5283
99.7339
108.929
117.672
124.756
129.943
133.546
135.367
135.576
134.3
131.696
127.951
123.152
117.414
110.806
103.366
95.1448
86.185
76.547
66.3156
55.6111
44.6037
33.5364
22.6922
12.3776
2.73585
-6.33879
-14.8424
-22.5229
-29.0353
-34.0117
-37.0389
-37.6632
-35.4819
-30.153
-21.4469
-9.34664
5.77786
23.0111
39.8653
89.5068
78.1997
63.994
46.3344
26.8825
4.84933
-19.3712
-43.8976
-67.3635
-89.5137
-109.821
-127.777
-143.632
-157.666
-170.072
-181.215
-191.394
-200.832
-209.757
-218.347
-226.721
-234.943
-243.031
-250.792
-257.71
-263.235
-266.97
-268.543
-267.569
-263.618
-256.25
-245.034
-229.599
-209.676
-185.164
-156.244
-123.544
-88.3778
-54.1413
91.8056
100.515
108.807
115.54
120.487
123.952
125.748
126.037
124.942
122.614
119.233
114.882
109.674
103.676
96.9264
89.4759
81.366
72.6534
63.4179
53.7702
43.8654
33.9244
24.2039
14.9801
6.3771
-1.71366
-9.30324
-16.1765
-22.0332
-26.5524
-29.3737
-30.0957
-28.3587
-23.855
-16.3741
-5.88984
7.28914
22.3873
37.253
82.1281
71.438
58.0137
41.3368
22.9832
2.21195
-20.5979
-43.6605
-65.6841
-86.429
-105.4
-122.122
-136.837
-149.814
-161.239
-171.457
-180.752
-189.337
-197.427
-205.193
-212.752
-220.171
-227.478
-234.502
-240.773
-245.789
-249.197
-250.666
-249.85
-246.365
-239.81
-229.796
-215.978
-198.102
-176.061
-149.992
-120.426
-88.4753
-57.1575
84.47
92.7216
100.59
106.993
111.715
115.052
116.827
117.191
116.267
114.198
111.154
107.22
102.502
97.0669
90.9522
84.2093
76.8778
69.0125
60.6871
52.0039
43.105
34.191
25.494
17.263
9.60551
2.41236
-4.33974
-10.4674
-15.7117
-19.794
-22.403
-23.1865
-21.8276
-18.0523
-11.6691
-2.64433
8.76996
21.9275
34.9783
75.3108
65.2029
52.5171
36.7693
19.4554
-0.121927
-21.5955
-43.272
-63.9315
-83.3482
-101.058
-116.62
-130.267
-142.258
-152.77
-162.131
-170.612
-178.411
-185.735
-192.747
-199.558
-206.24
-212.825
-219.163
-224.827
-229.36
-232.45
-233.8
-233.106
-230.026
-224.198
-215.274
-202.935
-186.945
-167.192
-143.773
-117.125
-88.1777
-59.6001
77.687
85.5065
92.9752
99.0684
103.581
106.798
108.552
108.988
108.224
106.397
103.668
100.12
95.8558
90.9399
85.4105
79.317
72.6988
65.6085
58.1146
50.3112
42.3285
34.349
26.5823
19.2531
12.4537
6.0756
0.0869432
-5.35681
-10.0338
-13.7038
-16.0997
-16.9161
-15.8763
-12.7389
-7.33186
0.384635
10.2095
21.6127
33.0143
69.0171
59.4595
47.4714
32.6032
16.2729
-2.17347
-22.3817
-42.7463
-62.1155
-80.2781
-96.7989
-111.27
-123.917
-134.986
-144.651
-153.22
-160.949
-168.028
-174.652
-180.973
-187.102
-193.109
-199.028
-204.733
-209.832
-213.91
-216.692
-217.918
-217.317
-214.589
-209.411
-201.471
-190.481
-176.219
-158.573
-137.603
-113.66
-87.5068
-61.4942
71.4191
78.8307
85.9226
91.7243
96.0389
99.1441
100.881
101.384
100.77
99.168
96.7323
93.5426
89.6976
85.2603
80.2694
74.7723
68.8077
62.4257
55.6905
48.689
41.54
34.4096
27.4872
20.9744
14.9506
9.30984
4.01364
-0.806749
-4.96204
-8.24689
-10.4341
-11.2607
-10.4879
-7.90518
-3.35939
3.19321
11.5965
21.423
31.3315
63.2116
54.1737
42.8461
28.8102
13.4111
-3.96442
-22.9742
-42.0971
-60.2459
-77.2242
-92.6252
-106.072
-117.782
-127.993
-136.87
-144.707
-151.745
-158.164
-164.147
-169.839
-175.345
-180.735
-186.046
-191.167
-195.743
-199.398
-201.888
-202.988
-202.459
-200.037
-195.439
-188.385
-178.618
-165.933
-150.217
-131.498
-110.051
-86.4865
-62.8697
65.6312
72.6575
79.3934
84.9204
89.0489
92.0493
93.769
94.3351
93.8613
92.4692
90.3056
87.4482
83.9907
79.9949
75.4989
70.5492
65.1831
59.4484
53.405
47.1333
40.7421
34.3818
28.2235
22.4481
17.1233
12.1471
7.47611
3.22055
-0.458525
-3.38721
-5.37327
-6.19283
-5.64125
-3.53738
0.254075
5.77925
12.9199
21.3375
29.901
57.8609
49.3145
38.6116
25.3638
10.8463
-5.51534
-23.3903
-41.3371
-58.3331
-74.1938
-88.5406
-101.025
-111.86
-121.27
-129.418
-136.579
-142.982
-148.796
-154.194
-159.314
-164.253
-169.081
-173.838
-178.424
-182.519
-185.782
-187.999
-188.975
-188.501
-186.347
-182.265
-176.008
-167.346
-156.093
-142.135
-125.476
-106.319
-85.1451
-63.7602
60.2902
66.9522
73.3516
78.6195
82.5726
85.4737
87.177
87.8018
87.4585
86.2616
84.3503
81.8004
78.701
75.1119
71.0709
66.6229
61.8044
56.6605
51.2475
45.6395
39.9358
34.273
28.805
23.6937
18.9971
14.6174
10.5084
6.76199
3.51453
0.912562
-0.882761
-1.68218
-1.3123
0.381523
3.51735
8.14193
14.1688
21.3349
28.6926
52.9334
44.8522
34.7404
22.2391
8.55657
-6.84461
-23.6449
-40.4802
-56.3866
-71.1935
-84.5483
-96.1309
-106.147
-114.813
-122.284
-128.822
-134.642
-139.904
-144.769
-149.368
-153.794
-158.113
-162.365
-166.464
-170.118
-173.021
-174.986
-175.843
-175.412
-173.493
-169.87
-164.326
-156.66
-146.701
-134.338
-119.553
-102.489