/*--------------------------------*- C++ -*----------------------------------*\
| =========                 |                                                 |
| \\      /  F ield         | OpenFOAM: The Open Source CFD Toolbox           |
|  \\    /   O peration     | Version:  v1806                                 |
|   \\  /    A nd           | Web:      www.OpenFOAM.com                      |
|    \\/     M anipulation  |                                                 |
\*---------------------------------------------------------------------------*/
FoamFile
{
    version     2.0;
    format      ascii;
    class       volScalarField;
    location    "263";
    object      p;
}
// * * * * * * * * * * * * * * * * * * * * * * * * * * * * * * * * * * * * * //

dimensions      [0 2 -2 0 0 0 0];


internalField   nonuniform List<scalar> 
10720
(
976.334
1250.36
1507.26
1713.14
1851.07
1912.95
1918.86
1872.83
1762.48
1606.61
1421.24
1214.93
995.794
771.703
549.699
336.045
134.035
-49.6503
-213.113
-349.987
-458.983
-534.914
-580.925
-598.2
-597.66
-597.385
-596.738
-585.313
-563.003
-531.425
-490.925
-441.96
-384.92
-319.789
-246.239
-160.954
-60.0559
82.3266
285.349
662.175
322.781
-107.804
-591.511
-1098.22
-1618.04
-2106.27
-2490.27
-2725.14
-2850.59
-2881.45
-2830.01
-2733.01
-2610.94
-2471.8
-2337.49
-2209.43
-2093.96
-1992.71
-1911.87
-1849.3
-1804.11
-1770.08
-1739.29
-1689.62
-1612.61
-1522.94
-1425.64
-1320.79
-1208.12
-1088.72
-963.544
-833.102
-696.824
-553.748
-399.327
-228.469
-13.6414
253.039
1147.49
1343.98
1524.08
1676.24
1786.07
1846.44
1857.34
1817.16
1727.26
1598.43
1439.87
1258.3
1060.7
854.251
645.614
440.769
244.252
61.8522
-102.935
-244.716
-360.81
-447.083
-504.987
-535.935
-548.591
-557.321
-562.591
-556.502
-538.877
-511.376
-474.468
-428.599
-374.181
-311.224
-239.401
-155.438
-55.5639
86.2015
282.773
933.174
685.242
387.438
43.9437
-330.865
-725.21
-1112.34
-1456.67
-1737.81
-1954.29
-2097.95
-2169.48
-2193.07
-2183.58
-2147.42
-2095.75
-2032.52
-1964.72
-1898.28
-1840.53
-1792.5
-1755.06
-1724.4
-1693.93
-1646.6
-1575.12
-1490.69
-1398.15
-1297.66
-1189
-1073.17
-951.098
-823.257
-689.123
-547.744
-394.634
-224.836
-10.5706
250.366
1135.22
1309.7
1468.67
1601.75
1697.81
1754.39
1769.81
1741.29
1669.62
1560.5
1420.21
1254.96
1071.41
876.315
676.251
477.308
284.809
104.23
-60.0214
-203.117
-321.69
-412.317
-475.278
-512.19
-530.055
-540.798
-546.746
-542.082
-526.061
-500.119
-464.763
-420.355
-367.266
-305.475
-234.612
-151.412
-52.1351
88.6644
279.157
946.674
730.95
472.935
168.571
-167.402
-525.746
-889.508
-1232.5
-1529.01
-1761
-1924.42
-2024.15
-2073.45
-2083.83
-2063.79
-2023.1
-1969.41
-1909.89
-1850.65
-1797.25
-1751.92
-1715.52
-1685.08
-1654.59
-1610.45
-1544.93
-1465.57
-1377.18
-1280.24
-1174.69
-1061.51
-941.669
-815.676
-683.069
-542.906
-390.768
-221.792
-8.651
247.282
1115.76
1261.82
1397.15
1512.4
1597.46
1650.99
1669.92
1650.94
1594.36
1503.62
1383.11
1237.68
1072.94
894.658
708.801
521.216
337.287
162.352
1.1969
-141.489
-261.929
-356.865
-425.738
-469.972
-495.178
-511.148
-520.96
-520.227
-507.763
-484.863
-452.164
-410.04
-358.881
-298.693
-229.114
-146.935
-48.5192
90.793
275.243
958.625
779.677
564.038
309.798
28.5578
-275.163
-588.116
-888.587
-1157.32
-1382.4
-1559.09
-1689.7
-1778.31
-1830.23
-1851.16
-1847.91
-1827.32
-1795.79
-1759.13
-1722.69
-1689.72
-1661.46
-1636.01
-1608.46
-1568.44
-1508.93
-1434.98
-1351.29
-1258.59
-1156.87
-1047.03
-930.061
-806.475
-675.86
-537.298
-386.465
-218.657
-7.29297
243.228
1068.56
1196.59
1316.17
1418.41
1494.85
1545.44
1566.67
1555.31
1511.28
1436.44
1333.58
1206.21
1058.91
896.55
724.456
548.113
372.868
204.001
46.5098
-94.9494
-216.281
-314.262
-387.745
-437.792
-468.82
-488.713
-500.951
-502.563
-492.322
-471.419
-440.59
-400.199
-350.607
-291.808
-223.413
-142.242
-44.7804
92.7969
270.929
930.767
774.961
586.878
364.033
117.277
-151.653
-432.874
-708.498
-963.102
-1186.66
-1372.86
-1518.87
-1624.84
-1695.01
-1734.48
-1749.01
-1744.61
-1726.99
-1701.54
-1673.24
-1645.59
-1620.13
-1595.72
-1568.45
-1530.26
-1474.87
-1405.25
-1325.52
-1236.53
-1138.3
-1031.65
-917.49
-796.348
-667.831
-531.019
-381.687
-215.331
-6.23556
237.972
1014.76
1127.49
1233.78
1325.2
1394.49
1442.18
1464.61
1458.99
1424.89
1363.3
1275.94
1165.23
1034.79
888.582
731.151
567.462
402.602
241.639
89.5665
-48.9409
-169.684
-269.366
-346.38
-401.322
-437.616
-461.57
-476.755
-481.308
-473.997
-455.773
-427.39
-389.194
-341.526
-284.378
-217.356
-137.347
-40.9974
94.5221
266.131
893.656
757.507
592.711
397.013
180.542
-56.7321
-306.954
-554.557
-786.752
-995.647
-1175.04
-1321.63
-1435.9
-1520.5
-1578.21
-1612.42
-1627.32
-1627.42
-1617.34
-1601.52
-1583.4
-1564.75
-1545.04
-1521.22
-1487.13
-1437.26
-1373.06
-1298.05
-1213.27
-1118.84
-1015.54
-904.319
-785.699
-659.346
-524.374
-376.67
-211.991
-5.6589
231.556
956.825
1057.45
1152.98
1235.42
1298.64
1343.46
1366.3
1364.91
1338.64
1287.95
1213.86
1117.94
1002.93
871.969
728.833
577.904
423.836
271.434
125.581
-9.10278
-128.373
-228.839
-308.531
-367.551
-408.461
-436.215
-454.179
-461.372
-456.657
-440.795
-414.571
-378.353
-332.461
-276.879
-211.203
-132.385
-37.2443
95.9236
260.913
848.804
727.948
581.428
407.002
214.275
2.14008
-223.171
-447.913
-661.285
-857.198
-1030.24
-1176.87
-1296.76
-1390.51
-1459.64
-1506.47
-1534.35
-1546.92
-1548.07
-1541.56
-1530.56
-1516.87
-1500.39
-1478.82
-1447.45
-1401.65
-1341.86
-1270.9
-1189.92
-1099.06
-999.028
-890.712
-774.637
-650.502
-517.44
-371.485
-208.692
-5.60793
224.125
898.654
989.124
1075.56
1150.35
1208.28
1250.3
1273.01
1274.64
1254.47
1212.66
1149.76
1066.77
965.682
848.923
719.56
581.336
438.416
295.258
156.507
26.6394
-90.1074
-190.273
-271.615
-333.768
-378.534
-409.739
-430.403
-440.192
-438.128
-424.763
-400.859
-366.784
-322.826
-268.951
-204.752
-127.264
-33.4982
97.0013
255.326
801.586
693.461
562.183
405.604
232.819
42.0917
-161.477
-365.523
-560.724
-742.288
-905.485
-1046.88
-1165.94
-1262.94
-1338.89
-1395.23
-1434.09
-1458.02
-1469.94
-1472.88
-1469.56
-1461.74
-1449.61
-1431.51
-1403.87
-1362.82
-1308.06
-1241.74
-1164.99
-1078.06
-981.575
-876.388
-763.036
-641.259
-510.237
-366.167
-205.449
-6.03289
215.877
841.658
923.59
1002.24
1070.47
1123.73
1163.01
1185.24
1188.99
1173.57
1138.96
1085.45
1013.61
924.885
821.09
704.65
578.705
446.898
313.261
182.116
57.7435
-55.6923
-154.702
-236.839
-301.315
-349.271
-383.582
-406.829
-419.092
-419.57
-408.624
-386.978
-355.007
-312.969
-260.816
-198.136
-122.063
-29.8109
97.7292
249.368
753.786
656.254
537.701
396.049
239.963
67.2577
-117.78
-303.962
-483.003
-651.165
-804.392
-939.535
-1056.18
-1154.39
-1234.51
-1297.33
-1344.16
-1376.73
-1397.27
-1408.11
-1411.5
-1408.98
-1400.91
-1386.07
-1361.77
-1324.85
-1274.57
-1212.52
-1139.77
-1056.61
-963.613
-861.564
-750.99
-631.659
-502.79
-360.752
-202.29
-6.90726
206.997
786.812
861.42
933.324
995.818
1044.91
1081.61
1103.11
1108.31
1096.58
1067.8
1022.13
959.851
881.994
789.884
685.397
571.126
450.172
326.118
202.918
84.6113
-24.8025
-121.851
-203.934
-269.909
-320.352
-357.338
-382.975
-397.572
-400.503
-391.96
-372.593
-342.77
-302.717
-252.364
-191.294
-116.755
-26.1803
98.1078
243.053
706.801
618.294
510.589
381.686
239.851
82.6436
-86.3245
-256.742
-421.19
-576.696
-719.774
-847.534
-959.776
-1056.52
-1137.85
-1204.29
-1256.6
-1295.84
-1323.51
-1341.3
-1350.91
-1353.6
-1349.76
-1338.52
-1317.84
-1285.18
-1239.54
-1181.95
-1113.38
-1034.17
-944.815
-846.052
-738.394
-621.646
-495.073
-355.239
-199.234
-8.23499
197.603
734.545
802.807
868.804
926.263
971.6
1005.84
1026.5
1032.66
1023.78
999.735
960.613
906.505
838.133
756.451
662.888
559.532
448.987
334.381
219.278
107.411
2.5669
-91.844
-173.132
-239.86
-292.129
-331.356
-359.165
-375.943
-381.21
-375.004
-357.887
-330.207
-292.16
-243.651
-184.26
-111.364
-22.6273
98.1394
236.4
661.336
580.58
482.22
364.311
234.742
90.93
-64.0194
-220.577
-372.003
-515.905
-649.232
-769.405
-876.437
-970.419
-1051.35
-1119.53
-1175.42
-1219.52
-1252.77
-1276.29
-1291.31
-1298.75
-1298.95
-1291.26
-1274.1
-1245.43
-1204.15
-1150.86
-1086.39
-1011.08
-925.386
-829.963
-725.306
-611.247
-487.101
-349.64
-196.305
-10.0209
187.751
685.07
747.771
808.561
861.557
903.502
935.435
955.169
961.931
955.264
935.078
901.421
854.277
794.158
721.729
638.05
544.79
444.097
338.657
231.63
126.42
26.5715
-64.6231
-144.442
-211.228
-264.687
-305.692
-335.408
-354.185
-361.651
-357.711
-342.815
-317.283
-281.272
-234.663
-177.032
-105.896
-19.1622
97.8276
229.44
617.803
543.794
453.559
345.244
226.347
94.2382
-48.3785
-192.671
-332.422
-465.69
-589.795
-702.417
-803.735
-893.953
-973.089
-1041.37
-1099.07
-1146.37
-1183.76
-1211.9
-1231.54
-1243.29
-1247.36
-1243.21
-1229.6
-1204.85
-1167.86
-1118.86
-1058.53
-987.184
-905.227
-813.243
-711.697
-600.452
-478.875
-343.967
-193.522
-12.2602
177.469
638.43
696.231
752.388
801.399
840.267
870.057
888.825
895.912
890.978
873.95
844.868
803.668
750.708
686.444
611.651
527.644
436.164
339.493
240.393
141.925
47.3615
-40.1564
-117.931
-184.146
-238.194
-280.51
-311.842
-332.42
-341.928
-340.16
-327.439
-304.041
-270.083
-225.419
-169.623
-100.365
-15.7964
97.1846
222.198
576.414
508.311
425.221
325.335
215.816
93.993
-37.7229
-171.088
-300.372
-423.955
-539.462
-644.783
-740.245
-826.184
-902.656
-969.922
-1028.14
-1077.3
-1117.58
-1149.27
-1172.73
-1188.27
-1195.92
-1195.16
-1184.97
-1163.97
-1131.07
-1086.25
-1029.99
-962.596
-884.402
-795.92
-697.579
-589.265
-470.401
-338.229
-190.898
-14.9489
166.795
594.594
648.045
700.053
745.476
781.551
809.359
827.151
834.377
830.799
816.362
791.122
754.993
708.24
651.167
584.32
508.723
425.784
337.41
245.988
154.24
65.1427
-18.345
-93.5905
-158.676
-212.757
-255.927
-288.56
-310.719
-322.094
-322.388
-311.783
-290.496
-258.605
-215.93
-162.045
-94.7821
-12.5432
96.2245
214.706
537.237
474.369
397.588
305.183
203.953
91.257
-30.7462
-154.356
-274.222
-389.002
-496.536
-594.909
-684.557
-765.927
-839.148
-904.533
-962.222
-1012.1
-1054.16
-1088.4
-1114.88
-1133.63
-1144.51
-1146.96
-1140.07
-1122.67
-1093.71
-1052.97
-1000.75
-937.304
-862.908
-777.995
-682.953
-577.688
-461.684
-332.434
-188.44
-18.0604
155.776
553.479
603.031
651.311
693.49
727.033
753.003
769.828
777.065
774.541
762.238
740.244
708.461
667.091
616.332
556.563
488.58
413.502
332.907
248.831
163.669
80.1146
0.914203
-71.4057
-134.876
-188.486
-232.063
-265.669
-289.175
-302.227
-304.457
-295.892
-276.683
-246.86
-206.212
-154.312
-89.1606
-9.41018
94.9618
207.001
500.282
442.071
370.921
285.188
191.347
86.795
-26.5173
-141.357
-252.735
-359.489
-459.666
-551.496
-635.509
-712.231
-781.855
-844.782
-901.161
-950.862
-993.763
-1029.68
-1058.44
-1079.83
-1093.54
-1098.95
-1095.17
-1081.17
-1055.95
-1019.15
-970.898
-911.368
-840.779
-759.487
-667.83
-565.73
-452.731
-326.59
-186.156
-21.5716
144.469
514.961
561.003
605.922
645.163
676.396
700.661
716.549
723.702
722.005
711.475
692.231
664.179
627.482
582.269
528.798
467.675
399.785
326.424
249.313
170.538
92.5093
17.7527
-51.3333
-112.782
-165.469
-209.034
-243.278
-267.878
-282.404
-286.425
-279.812
-262.635
-234.875
-196.285
-146.439
-83.5137
-6.40732
93.4186
199.119
465.509
411.468
345.361
265.621
178.403
81.1639
-24.3281
-131.254
-234.943
-334.381
-427.781
-513.491
-592.105
-664.209
-730.07
-790.15
-844.664
-893.477
-936.442
-973.256
-1003.59
-1027.04
-1043.17
-1051.23
-1050.34
-1039.54
-1017.87
-984.862
-940.481
-884.824
-818.044
-740.414
-652.221
-553.398
-443.55
-320.704
-184.045
-25.4441
132.918
478.913
521.782
563.655
600.222
629.34
652.035
667.026
674.025
672.977
663.933
647.027
622.188
589.559
549.22
501.339
446.378
385.03
318.351
247.791
175.149
102.559
32.3237
-33.3031
-92.392
-143.764
-186.926
-221.478
-246.914
-262.705
-268.359
-263.593
-248.391
-222.678
-186.172
-138.445
-77.8555
-3.53885
91.6179
191.098
432.846
382.559
320.999
246.671
165.416
74.7809
-23.6331
-123.394
-220.092
-312.853
-400.006
-480.012
-553.504
-621.117
-683.157
-740.172
-792.422
-839.823
-882.223
-919.277
-950.551
-975.523
-993.623
-1004.02
-1005.77
-997.925
-979.59
-950.198
-909.578
-857.732
-794.742
-720.803
-636.144
-540.706
-434.153
-314.784
-182.106
-29.6411
121.171
445.2
485.189
524.286
558.419
585.593
606.848
620.982
627.786
627.25
619.451
604.547
582.49
553.407
517.352
474.43
424.993
369.579
309.046
244.604
177.797
110.498
44.7928
-17.2228
-73.6919
-123.415
-165.823
-200.366
-226.374
-243.211
-250.326
-247.292
-233.996
-210.304
-175.898
-130.352
-72.199
-0.809782
89.587
182.982
402.205
355.315
297.875
228.456
152.604
67.9538
-24.0238
-117.257
-207.589
-294.231
-375.628
-450.332
-519.003
-582.295
-640.557
-694.391
-744.125
-789.725
-831.067
-867.811
-899.476
-925.455
-945.091
-957.478
-961.579
-956.452
-941.22
-915.256
-878.265
-830.152
-770.92
-700.686
-619.622
-527.668
-424.55
-308.834
-180.336
-34.1178
109.29
413.686
451.051
487.619
519.52
544.918
564.837
578.162
584.742
584.616
577.869
564.687
545.045
519.064
486.781
448.262
403.771
353.726
298.82
240.058
178.758
116.556
55.3301
-2.99505
-56.648
-104.446
-145.79
-180.023
-206.342
-224.003
-232.399
-230.968
-219.497
-197.79
-165.492
-122.178
-66.5592
1.77827
87.3551
174.813
373.489
329.688
275.998
211.049
140.119
60.9209
-25.181
-112.45
-196.952
-277.975
-354.061
-423.845
-487.993
-547.167
-601.752
-652.386
-699.456
-742.988
-782.905
-818.893
-850.471
-876.997
-897.753
-911.771
-917.926
-915.255
-902.885
-880.145
-846.633
-802.152
-746.629
-680.103
-602.681
-514.303
-414.753
-302.859
-178.723
-38.8309
97.331
384.24
419.21
453.461
483.317
507.083
525.768
538.331
544.676
544.872
539.022
527.328
509.793
486.534
457.582
422.972
382.909
337.71
287.937
234.422
178.289
120.957
64.1054
9.49308
-41.2105
-86.865
-126.874
-160.52
-186.898
-205.162
-214.65
-214.684
-204.948
-185.178
-154.988
-113.951
-60.9495
4.22573
84.9533
166.636
346.603
305.622
255.357
194.496
128.061
53.8561
-26.8617
-108.657
-187.805
-263.657
-334.842
-400.056
-459.962
-515.239
-566.281
-613.76
-658.101
-699.393
-737.615
-772.508
-803.606
-830.265
-851.743
-867.041
-874.951
-874.461
-864.705
-844.973
-814.773
-773.81
-721.93
-659.096
-585.353
-500.634
-404.776
-296.862
-177.256
-43.7311
85.3524
356.741
389.512
421.633
449.612
471.879
489.422
501.274
507.378
507.831
502.749
492.352
476.661
455.797
429.788
398.654
362.551
321.724
276.624
227.943
176.63
123.917
71.2971
20.3703
-27.3075
-70.6575
-109.107
-141.919
-168.114
-186.765
-197.153
-198.505
-190.402
-172.512
-144.418
-105.694
-55.3834
6.53633
82.4157
158.496
321.45
283.05
235.925
178.818
116.508
46.884
-28.8799
-105.64
-179.858
-250.933
-317.578
-378.553
-434.501
-486.102
-533.759
-578.16
-619.77
-658.727
-695.073
-728.609
-758.905
-785.351
-807.193
-823.429
-832.787
-834.202
-826.803
-809.853
-782.783
-745.207
-696.889
-637.717
-567.675
-486.685
-394.634
-290.843
-175.916
-48.766
73.4165
331.066
361.815
391.975
418.226
439.112
455.602
466.79
472.653
473.308
468.892
459.63
445.562
426.812
403.412
375.373
342.815
305.927
265.076
220.829
173.992
125.633
77.0731
29.7617
-14.8617
-55.7942
-92.5069
-124.266
-150.056
-168.886
-179.98
-182.5
-175.919
-159.842
-133.823
-97.4356
-49.8749
8.71419
79.7775
150.441
297.932
261.906
217.668
164.018
105.507
40.1032
-31.0911
-103.197
-172.858
-239.515
-301.953
-358.984
-411.239
-459.379
-503.82
-545.256
-584.177
-620.769
-655.133
-687.121
-716.366
-742.298
-764.192
-781.045
-791.554
-794.598
-789.3
-774.9
-750.766
-716.43
-671.576
-616.021
-549.687
-472.484
-384.341
-284.802
-174.683
-53.885
61.5884
307.099
335.989
364.337
388.995
408.612
424.123
434.695
440.321
441.142
437.301
429.037
416.404
399.53
378.449
353.168
323.786
290.448
253.447
213.26
170.565
126.289
81.5987
37.7983
-3.78788
-42.2365
-77.0739
-107.598
-132.78
-151.592
-163.203
-166.736
-161.559
-147.219
-123.242
-89.2034
-44.4365
10.7661
77.0709
142.514
275.96
242.118
200.541
150.088
95.0832
33.5808
-33.3808
-101.175
-166.608
-229.169
-287.696
-341.058
-389.867
-434.769
-476.168
-514.768
-551.076
-585.318
-617.642
-647.957
-675.961
-701.14
-722.814
-739.991
-751.368
-755.77
-752.312
-740.228
-718.827
-687.571
-646.071
-594.071
-531.436
-458.062
-373.914
-278.739
-173.532
-59.0331
49.9282
284.737
311.908
338.581
361.768
380.212
394.822
404.818
410.215
411.172
407.837
400.456
389.095
373.886
354.872
332.057
305.523
275.382
241.875
205.397
166.525
126.057
85.0299
44.6088
6.00736
-29.9301
-62.7973
-91.9382
-116.336
-134.945
-146.893
-151.279
-147.384
-134.696
-112.718
-81.0269
-39.0819
12.7014
74.3324
134.759
255.441
223.62
184.505
137.011
85.2519
27.3686
-35.6635
-99.4487
-160.959
-219.71
-274.597
-324.54
-370.131
-411.995
-450.532
-486.438
-520.23
-552.167
-582.438
-611.009
-637.635
-661.872
-683.094
-700.338
-712.317
-717.82
-715.952
-705.947
-687.073
-658.726
-620.453
-571.934
-512.974
-443.453
-363.371
-272.648
-172.435
-64.1557
38.5001
263.879
289.457
314.58
336.404
353.763
367.541
377.001
382.18
383.25
380.362
373.764
363.538
349.816
332.65
312.042
288.065
260.807
230.466
197.372
162.017
125.09
87.508
50.3182
14.6235
-18.8119
-49.6502
-77.2937
-100.756
-118.996
-131.113
-136.195
-133.455
-122.328
-102.294
-72.9365
-33.8219
14.529
71.5955
127.218
236.292
206.341
169.51
124.766
76.0205
21.5025
-37.8734
-97.9288
-155.782
-210.979
-262.471
-309.227
-351.813
-390.831
-426.675
-460.036
-491.427
-521.132
-549.371
-576.166
-601.332
-624.485
-645.063
-662.145
-674.485
-680.842
-680.327
-672.164
-655.605
-629.991
-594.807
-549.676
-494.354
-428.697
-352.728
-266.528
-171.362
-69.1984
27.3663
244.43
268.53
292.216
312.778
329.133
342.14
351.102
356.075
357.239
354.747
348.851
339.639
327.249
311.738
293.112
271.434
246.777
219.305
189.295
157.167
123.522
89.1682
55.0449
22.1548
-8.81955
-37.6033
-63.6677
-86.0688
-103.791
-115.92
-121.549
-119.834
-110.168
-92.0159
-64.961
-28.6705
16.2615
68.8931
119.931
218.432
190.216
155.506
113.324
67.3837
16.0008
-39.9604
-96.5334
-150.973
-202.851
-251.17
-294.948
-334.728
-371.087
-404.407
-435.365
-464.476
-492.035
-518.293
-543.312
-566.969
-588.935
-608.72
-625.456
-637.937
-644.922
-645.53
-638.988
-624.53
-601.463
-569.223
-527.374
-475.63
-413.828
-342.005
-260.371
-170.282
-74.1071
16.5877
226.303
249.031
271.378
290.77
306.195
318.486
326.988
331.766
333.01
330.872
325.606
317.307
306.114
292.09
275.245
255.638
233.329
208.458
181.257
152.088
121.475
90.1338
58.9053
28.6977
0.122366
-26.6143
-51.0466
-72.2915
-89.3667
-101.366
-107.398
-106.58
-98.2723
-81.9264
-57.1344
-23.6382
17.9085
66.2519
112.932
201.781
175.181
142.449
102.653
59.3321
10.8765
-41.8918
-95.2041
-146.45
-195.222
-240.572
-281.563
-318.717
-352.588
-383.547
-412.247
-439.2
-464.716
-489.058
-512.333
-534.46
-555.174
-574.055
-590.289
-602.721
-610.131
-611.648
-606.51
-593.948
-573.242
-543.787
-505.105
-456.866
-398.887
-331.221
-254.173
-169.16
-78.8341
6.21905
209.414
230.863
251.964
270.268
284.832
296.459
304.535
309.133
310.444
308.626
303.928
296.452
286.337
273.653
258.415
240.675
220.489
197.975
173.333
146.873
119.053
90.5131
62.0025
34.3468
8.08492
-16.6331
-39.4105
-59.4278
-75.753
-87.4981
-93.7969
-93.7503
-86.6941
-72.0719
-49.4838
-18.7374
19.4796
63.7021
106.251
186.27
161.175
130.288
92.7246
51.8509
6.13404
-43.6411
-93.8966
-142.146
-188.007
-230.575
-268.957
-303.655
-335.195
-363.942
-390.527
-415.452
-439.029
-461.54
-483.115
-503.721
-523.152
-541.045
-556.653
-568.875
-576.528
-578.758
-574.819
-563.95
-545.418
-518.589
-482.944
-438.12
-383.92
-320.393
-247.928
-167.968
-83.324
-3.6879
193.686
213.942
233.881
251.173
264.938
275.949
283.629
288.058
289.43
287.9
283.716
276.986
267.847
256.374
242.585
226.535
208.27
187.894
165.58
141.598
116.35
90.4036
64.435
39.1876
15.1395
-7.61087
-28.7338
-47.4776
-62.9693
-74.3527
-80.7954
-81.3976
-75.4833
-62.4955
-42.0404
-13.9786
20.9897
61.2657
99.9148
171.828
148.139
118.976
83.5043
44.9228
1.77509
-45.1919
-92.5742
-138.01
-181.136
-221.092
-257.031
-289.429
-318.793
-345.469
-370.073
-393.09
-414.839
-435.606
-455.546
-474.662
-492.798
-509.649
-524.538
-536.417
-544.157
-546.922
-543.996
-534.628
-518.085
-493.711
-460.969
-419.459
-368.965
-309.545
-241.63
-166.665
-87.5361
-13.0863
179.046
198.187
217.041
233.391
246.412
256.851
264.165
268.436
269.862
268.596
264.879
258.825
250.572
240.196
227.72
213.198
196.674
178.239
158.044
136.325
113.439
89.8923
66.2897
43.306
21.3622
0.509932
-18.98
-36.4283
-51.0255
-61.957
-68.4329
-69.569
-64.6884
-53.2369
-34.8326
-9.37253
22.4443
58.9652
93.946
158.39
136.017
108.469
74.9579
38.5266
-2.20729
-46.5338
-91.2122
-134.001
-174.555
-212.057
-245.702
-275.943
-303.272
-328.015
-350.766
-371.999
-392.026
-411.143
-429.522
-447.193
-464.043
-479.825
-493.929
-505.358
-513.049
-516.193
-514.105
-506.057
-491.323
-469.242
-439.253
-400.942
-354.071
-298.695
-235.274
-165.228
-91.426
-21.9363
165.425
183.524
201.362
216.833
229.162
239.07
246.044
250.17
251.644
250.619
247.33
241.892
234.444
225.063
213.778
200.643
185.698
169.025
150.758
131.108
110.388
89.0534
67.648
46.7796
26.8215
7.78712
-10.1113
-26.263
-39.9244
-50.3329
-56.7452
-58.3078
-54.3529
-44.3362
-27.8868
-4.93063
23.8527
56.8157
88.3587
145.896
124.754
98.7214
67.0526
32.6422
-5.82204
-47.66
-89.7938
-130.089
-168.22
-203.411
-234.901
-263.123
-288.543
-311.481
-332.504
-352.07
-370.486
-388.049
-404.944
-421.227
-436.82
-451.526
-464.8
-475.698
-483.227
-486.615
-485.208
-478.31
-465.213
-445.256
-417.872
-382.629
-339.281
-287.865
-228.856
-163.626
-94.9574
-30.2014
152.759
169.881
186.769
201.419
213.104
222.518
229.176
233.167
234.687
233.882
230.983
226.108
219.394
210.919
200.717
188.84
175.329
160.259
143.75
125.987
107.252
87.9516
68.5777
49.6798
31.5849
14.2755
-2.08599
-16.9565
-29.6611
-39.4928
-45.7589
-47.6499
-44.5155
-35.8274
-21.2285
-0.663771
25.2214
54.83
83.1622
134.287
114.3
89.69
59.7551
27.2458
-9.0802
-48.572
-88.3054
-126.248
-162.097
-195.112
-224.576
-250.902
-274.538
-295.788
-315.198
-333.208
-350.12
-366.227
-381.722
-396.679
-411.055
-424.695
-437.112
-447.423
-454.701
-458.217
-457.353
-451.451
-439.826
-421.829
-396.894
-364.581
-324.634
-277.078
-222.375
-161.831
-98.096
-37.8512
140.987
157.192
173.19
187.073
198.156
207.109
213.475
217.341
218.902
218.301
215.762
211.403
205.359
197.71
188.493
177.761
165.555
151.943
137.032
120.993
104.073
86.6411
69.1413
52.0696
35.7142
20.0312
5.14021
-8.48042
-20.2231
-29.4414
-35.4928
-37.6241
-35.2094
-27.7417
-14.8805
3.41924
26.5536
53.0169
78.362
123.508
104.607
81.3343
53.0317
22.3138
-11.9956
-49.2744
-86.7379
-122.461
-156.157
-187.122
-214.679
-239.227
-261.192
-280.866
-298.773
-315.334
-330.842
-345.59
-359.77
-373.473
-386.682
-399.278
-410.83
-420.513
-427.47
-431.018
-430.578
-425.531
-415.224
-399.026
-376.384
-346.855
-310.175
-266.354
-215.83
-159.826
-100.817
-44.8633
130.053
145.398
160.559
173.724
184.245
192.769
198.862
202.613
204.212
203.799
201.591
197.705
192.275
185.38
177.062
167.374
156.354
144.068
130.615
116.146
100.887
85.1695
69.3935
54.0094
39.269
25.1094
11.6131
-0.801978
-11.5928
-20.1754
-25.9586
-28.2521
-26.4613
-20.1058
-8.86295
7.30682
27.8522
51.3803
73.9555
113.507
95.6269
73.6143
46.8506
17.8224
-14.5837
-49.7695
-85.0902
-118.716
-150.377
-179.407
-205.171
-228.047
-248.449
-266.653
-283.16
-298.373
-312.578
-326.058
-339.008
-351.53
-363.628
-375.215
-385.908
-394.945
-401.53
-405.028
-404.909
-400.59
-391.458
-376.908
-356.401
-329.504
-295.944
-255.715
-209.225
-157.594
-103.098
-51.2242
119.902
134.438
148.813
161.305
171.301
179.425
185.265
188.909
190.544
190.304
188.4
184.951
180.083
173.879
166.38
157.643
147.705
136.627
124.502
111.466
97.7231
83.574
69.3804
55.5495
42.3028
29.5617
17.3779
6.11445
-3.74748
-11.6848
-17.1602
-19.5483
-18.2921
-12.9415
-3.19327
10.9907
29.1155
49.919
69.9365
104.236
87.3167
66.4915
41.1807
13.7478
-16.8598
-50.0669
-83.3597
-115.003
-144.74
-171.947
-196.02
-217.33
-236.267
-253.1
-268.303
-282.265
-295.26
-307.561
-319.367
-330.782
-341.831
-352.449
-362.302
-370.684
-376.862
-380.251
-380.362
-376.661
-368.573
-355.524
-336.999
-312.575
-281.979
-245.186
-202.562
-155.124
-104.924
-56.9225
110.485
124.261
137.896
149.756
159.26
167.01
172.614
176.158
177.827
177.748
176.126
173.077
168.725
163.153
156.405
148.535
139.583
129.607
118.691
106.961
94.6022
81.8863
69.1418
56.7366
44.8647
33.4375
22.4807
12.3074
3.3411
-3.95401
-9.09445
-11.5196
-10.7155
-6.26501
2.11417
14.4618
30.3407
48.6297
66.2933
95.6472
79.6341
59.9293
35.9907
10.0652
-18.8415
-50.1762
-81.5485
-111.317
-139.237
-164.722
-187.205
-207.043
-224.609
-240.162
-254.154
-266.955
-278.829
-290.039
-300.781
-311.164
-321.225
-330.924
-339.964
-347.695
-353.446
-356.679
-356.949
-353.769
-346.603
-334.917
-318.223
-296.111
-268.313
-234.787
-195.85
-152.408
-106.29
-61.956
101.756
114.814
127.753
139.019
148.061
155.461
160.846
164.297
165.996
166.066
164.704
162.025
158.147
153.155
147.093
140.016
131.963
122.99
113.177
102.637
91.5404
80.133
68.7121
57.6112
47.0004
36.7838
26.9661
17.8161
9.70402
3.03775
-1.7511
-4.16578
-3.73845
-0.0871152
7.04903
17.7121
31.5241
47.5041
63.01
87.6984
72.5401
53.8929
31.2517
6.75164
-20.5451
-50.107
-79.6626
-107.655
-133.858
-157.717
-178.703
-197.159
-213.442
-227.802
-240.668
-252.393
-263.23
-273.432
-283.189
-292.613
-301.752
-310.582
-318.844
-325.938
-331.252
-334.296
-334.667
-331.923
-325.572
-315.121
-300.11
-280.15
-254.98
-224.541
-189.098
-149.446
-107.189
-66.3285
93.6674
106.05
118.333
129.04
137.649
144.72
149.899
153.263
154.991
155.2
154.077
151.738
148.297
143.837
138.404
132.051
124.818
116.761
107.951
98.4964
88.5488
78.3335
68.1196
58.2083
48.7499
39.6433
30.8771
22.6805
15.3752
9.31664
4.88623
2.51974
2.63805
5.58665
11.6036
20.7345
32.6583
46.5313
60.0674
80.348
65.9962
48.3493
26.9352
3.78392
-21.9893
-49.8711
-77.7059
-104.018
-128.597
-150.921
-170.497
-187.656
-202.74
-215.987
-227.808
-238.538
-248.416
-257.688
-266.535
-275.074
-283.354
-291.37
-298.893
-305.372
-310.25
-313.082
-313.508
-311.129
-305.497
-296.16
-282.691
-264.725
-242.009
-214.468
-182.319
-146.244
-107.629
-70.0509
86.1792
97.9239
109.587
119.769
127.971
134.733
139.718
143.001
144.755
145.092
144.191
142.166
139.126
135.154
130.296
124.605
118.123
110.899
103.004
94.5359
85.6344
76.5038
67.3884
58.5599
50.1501
42.0567
34.2556
26.9409
20.3906
14.9121
10.839
8.55028
8.41949
10.7557
15.7743
23.5235
33.7359
45.697
57.4423
73.5565
59.9675
43.2659
23.0138
1.13943
-23.1899
-49.4806
-75.6847
-100.407
-123.451
-144.326
-162.575
-178.516
-192.478
-204.69
-215.541
-225.35
-234.346
-242.762
-250.772
-258.492
-265.979
-273.236
-280.061
-285.954
-290.404
-293.012
-293.458
-291.383
-286.384
-278.05
-265.989
-249.861
-229.423
-204.589
-175.527
-142.811
-107.619
-73.1376
79.2517
90.3935
101.471
111.157
118.976
125.447
130.251
133.457
135.234
135.689
134.993
133.257
130.587
127.063
122.732
117.647
111.848
105.384
98.3219
90.7516
82.8013
74.6565
66.5384
58.6922
51.2338
44.0614
37.1412
30.6371
24.7874
19.8564
16.1331
13.9442
13.6171
15.4249
19.5607
26.0746
34.7479
44.9852
55.1099
67.2877
54.4196
38.6128
19.4609
-1.20374
-24.1658
-48.948
-73.6069
-96.8247
-118.417
-137.925
-154.925
-169.724
-182.638
-193.886
-203.839
-212.798
-220.981
-228.609
-235.852
-242.82
-249.574
-256.128
-262.301
-267.638
-271.675
-274.055
-274.494
-272.673
-268.232
-260.799
-250.018
-235.577
-217.245
-194.924
-168.738
-139.161
-107.175
-75.6106
72.8475
83.4192
93.9442
103.162
110.619
116.816
121.449
124.582
126.38
126.943
126.437
124.966
122.635
119.522
115.674
111.143
105.967
100.197
93.8923
87.1379
80.0508
72.8002
65.5858
58.6289
52.031
45.6924
39.5722
33.8086
28.6043
24.1851
20.799
18.725
18.2471
19.6038
22.966
28.3849
35.6851
44.3782
53.0435
61.5066
49.3211
34.361
16.2519
-3.26696
-24.9325
-48.2853
-71.481
-93.2746
-113.495
-131.714
-147.54
-161.268
-173.202
-183.555
-192.675
-200.85
-208.287
-215.194
-221.733
-228.012
-234.094
-239.997
-245.565
-250.38
-254.023
-256.177
-256.59
-254.982
-251.032
-244.407
-234.788
-221.888
-205.49
-185.49
-161.971
-135.311
-106.318
-77.4948
66.9317
76.9636
86.9655
95.7409
102.857
108.795
113.266
116.329
118.145
118.808
118.475
117.249
115.23
112.494
109.088
105.062
100.456
95.3159
89.7004
83.6868
77.3828
70.9418
64.5448
58.3907
52.5683
46.9815
41.5847
36.4934
31.8797
27.9346
24.8691
22.9199
22.33
23.3057
25.9966
30.4531
36.5383
43.8573
51.2147
56.1806
44.641
30.4836
13.3624
-5.07035
-25.5074
-47.5054
-69.315
-89.761
-108.686
-125.689
-140.411
-153.137
-164.158
-173.677
-182.028
-189.481
-196.232
-202.48
-208.376
-214.024
-219.49
-224.796
-229.804
-234.135
-237.406
-239.34
-239.716
-238.286
-234.769
-228.868
-220.299
-208.801
-194.173
-176.305
-155.244
-131.284
-105.074
-78.8196
61.4709
70.992
80.4981
88.8552
95.6477
101.342
105.658
108.654
110.485
111.239
111.065
110.065
108.332
105.941
102.939
99.375
95.2875
90.7218
85.7318
80.3903
74.7953
69.0864
63.4267
57.9954
52.8699
47.9585
43.2129
38.7289
34.652
31.1425
28.3788
26.5592
25.8903
26.5478
28.6614
32.2802
37.2988
43.4031
49.5953
51.2789
40.351
26.9541
10.7695
-6.63393
-25.9066
-46.6205
-67.1165
-86.2886
-103.99
-119.849
-133.533
-145.322
-155.49
-164.237
-171.877
-178.665
-184.788
-190.432
-195.742
-200.818
-205.721
-210.48
-214.973
-218.855
-221.781
-223.505
-223.836
-222.557
-219.421
-214.169
-206.546
-196.319
-183.302
-167.383
-148.577
-127.104
-103.472
-79.6195
56.4343
65.4712
74.5076
82.4684
88.9551
94.4167
98.5871
101.518
103.36
104.196
104.168
103.374
101.904
99.8287
97.1961
94.0533
90.4382
86.3941
81.9721
77.2391
72.2852
67.237
62.2415
57.4592
52.9581
48.6513
44.4893
40.5512
36.9592
33.8472
31.3644
29.6759
28.9551
29.3504
30.9727
33.8683
37.9584
42.9967
48.157
46.772
36.424
23.748
8.45172
-7.97578
-26.1443
-45.6413
-64.8949
-82.8622
-99.4091
-114.19
-126.902
-137.813
-147.188
-155.219
-162.202
-168.38
-173.928
-179.022
-183.798
-188.352
-192.745
-197.006
-201.028
-204.498
-207.103
-208.63
-208.914
-207.763
-204.965
-200.29
-193.518
-184.44
-172.882
-158.736
-141.989
-122.796
-101.544
-79.9296
51.7927
60.3705
68.9613
76.5462
82.7429
87.9835
92.0142
94.8818
96.7319
97.6422
97.7471