/*--------------------------------*- C++ -*----------------------------------*\
| =========                 |                                                 |
| \\      /  F ield         | OpenFOAM: The Open Source CFD Toolbox           |
|  \\    /   O peration     | Version:  v1806                                 |
|   \\  /    A nd           | Web:      www.OpenFOAM.com                      |
|    \\/     M anipulation  |                                                 |
\*---------------------------------------------------------------------------*/
FoamFile
{
    version     2.0;
    format      ascii;
    class       volScalarField;
    location    "269";
    object      p;
}
// * * * * * * * * * * * * * * * * * * * * * * * * * * * * * * * * * * * * * //

dimensions      [0 2 -2 0 0 0 0];


internalField   nonuniform List<scalar> 
10720
(
559.656
895.067
1225.61
1506.07
1720.71
1860.58
1918.23
1919.81
1867.75
1753.95
1598.89
1417.65
1217.84
1006.59
791.951
581.264
378.684
190.993
20.8016
-125.368
-245.626
-334.622
-394.821
-426.755
-440.44
-453.107
-464.484
-464.826
-453.989
-433.474
-403.624
-364.918
-317.789
-262.286
-198.167
-122.309
-31.0172
100.838
292.88
184.36
-207.296
-697.439
-1235.42
-1783.09
-2330.94
-2830.28
-3200.46
-3398.4
-3481.92
-3471.27
-3372.15
-3226.48
-3059.29
-2879.25
-2707.95
-2545.78
-2398.65
-2268.5
-2162.08
-2077.33
-2012.85
-1961.64
-1915.1
-1850.18
-1758.16
-1654.11
-1543.11
-1425.13
-1299.89
-1168.5
-1031.92
-890.613
-743.939
-590.884
-426.68
-246.688
-22.7935
243.719
863.279
1100.41
1325.14
1525.68
1687.15
1801.24
1859.83
1866.14
1820.41
1726.43
1595.64
1437.44
1258.56
1065.62
865.789
665.8
470.721
286.518
117.149
-31.7747
-157.125
-254.532
-324.78
-368.761
-394.461
-415.434
-432.207
-437.395
-430.831
-414.076
-387.59
-351.824
-307.213
-253.816
-191.377
-116.807
-26.5109
104.763
290.358
610.755
323.886
-13.8836
-395.329
-803.288
-1224.23
-1628.39
-1979.11
-2257.27
-2461.12
-2581.57
-2628.28
-2628.75
-2596.68
-2536.55
-2459.02
-2368.04
-2271.81
-2177.78
-2094.69
-2024.17
-1966.97
-1918.68
-1872.09
-1809.23
-1722.44
-1623.32
-1516.79
-1402.95
-1281.55
-1153.59
-1020
-881.217
-736.615
-585.201
-422.268
-243.303
-19.901
241.12
887.837
1100.64
1300.92
1477.44
1618.37
1719.43
1775.7
1787.49
1753.9
1677.64
1565.03
1423.07
1258.5
1077.76
887.593
694.586
504.486
323.041
155.025
5.57493
-121.547
-222.585
-297.261
-346.738
-377.314
-400.125
-417.414
-423.851
-418.727
-403.389
-378.325
-343.908
-300.532
-248.226
-186.691
-112.839
-23.1001
107.256
286.872
664.2
413.768
120.612
-219.498
-588.29
-974.257
-1358.69
-1713.67
-2010.64
-2231.05
-2375.64
-2456.27
-2485.04
-2472.97
-2428.94
-2363.46
-2284.61
-2200.25
-2117.15
-2041.73
-1976.53
-1922.3
-1875.6
-1829.94
-1771.03
-1690.86
-1597.29
-1495.27
-1385.23
-1267.11
-1141.91
-1010.62
-873.713
-730.659
-580.475
-418.529
-240.396
-18.0818
238.558
915.725
1092.16
1260.66
1411.54
1533.88
1624.69
1679.12
1695.59
1672.38
1611.36
1516.51
1392.94
1246.33
1082.26
906.683
725.729
545.103
370.383
206.629
58.8162
-68.9418
-173.058
-252.501
-308.225
-345.175
-372.466
-393.133
-403.095
-401.232
-388.719
-366.151
-333.898
-292.363
-241.594
-181.29
-108.415
-19.4932
109.443
283.154
730.57
523.475
278.347
-5.79663
-315.087
-643.571
-976.252
-1289.72
-1563.78
-1786.85
-1957.87
-2079.9
-2156.2
-2192.58
-2195.5
-2172.51
-2131.03
-2078.04
-2020.07
-1963.28
-1911.4
-1865.77
-1824.26
-1781.63
-1727.05
-1653.22
-1565.43
-1468.44
-1362.93
-1248.87
-1127.21
-998.926
-864.523
-723.524
-574.981
-414.371
-237.424
-16.8585
235.103
898.087
1052.97
1201.76
1335.14
1443.8
1526.35
1578.73
1598.63
1584.05
1536.14
1457.2
1350.62
1220.9
1072.75
911.389
742.411
571.361
403.705
244.649
99.1105
-28.5218
-134.693
-217.831
-278.526
-320.621
-351.438
-374.315
-386.431
-386.617
-375.945
-355.107
-324.463
-284.392
-234.924
-175.733
-103.804
-15.7748
111.516
279.077
735.33
554.586
340.266
90.3535
-182.207
-474.722
-775.966
-1066.67
-1330.61
-1557.53
-1742.31
-1881.66
-1977.43
-2034.61
-2059.08
-2056.95
-2034.58
-1998.15
-1953.67
-1906.81
-1861.61
-1819.78
-1780.06
-1738.28
-1686.07
-1616.91
-1533.9
-1441.25
-1339.78
-1229.51
-1111.27
-986.001
-854.201
-715.425
-568.729
-409.701
-234.262
-15.9741
230.351
869.384
1005.49
1137.36
1256.12
1353.4
1429.03
1479.15
1501.18
1493.38
1456.2
1390.91
1299.72
1186.06
1053.72
907.116
751.203
591.165
432.201
279.461
137.834
11.776
-95.1061
-180.826
-245.535
-292.145
-326.473
-351.849
-366.513
-369.302
-361.056
-342.466
-313.867
-275.604
-227.697
-169.81
-98.9849
-12.0051
113.328
274.554
726.507
568.582
380.565
160.753
-78.9443
-337.935
-607.19
-869.848
-1112.42
-1326.8
-1507.27
-1651.19
-1760.26
-1836.79
-1883.87
-1905.19
-1905.37
-1889.45
-1862.65
-1830.08
-1795.71
-1761.55
-1727.09
-1689.14
-1641.31
-1577.94
-1500.57
-1412.83
-1315.73
-1209.41
-1094.67
-972.46
-843.301
-706.802
-562.049
-404.752
-231.078
-15.6055
224.33
830.943
952.436
1070.87
1177.74
1265.58
1335.22
1382.92
1406.1
1403.46
1374.95
1321.18
1243.53
1144.48
1026.98
894.654
751.805
603.097
453.408
307.72
170.826
47.1845
-59.5328
-147.014
-214.948
-265.442
-303.014
-330.78
-347.769
-352.91
-346.826
-330.229
-303.467
-266.865
-220.432
-163.814
-94.1118
-8.26876
114.826
269.639
703.386
562.996
395.504
199.128
-14.9026
-247.294
-490.847
-730.644
-955.274
-1158.47
-1335.07
-1481.92
-1598.83
-1686.66
-1747.27
-1783.47
-1799.01
-1797.89
-1784.45
-1763
-1737.16
-1709.03
-1678.6
-1643.52
-1598.96
-1540.18
-1467.67
-1384.35
-1291.35
-1188.85
-1077.58
-958.445
-831.963
-697.794
-555.057
-399.622
-227.945
-15.8137
217.163
788.824
898.07
1005.16
1101.98
1181.78
1246.1
1291.3
1314.94
1316.11
1294.5
1250.3
1184.32
1098.33
994.521
875.802
745.798
608.621
468.744
330.87
199.6
79.3453
-26.1855
-114.444
-184.691
-238.32
-278.772
-308.808
-328.023
-335.496
-331.653
-317.167
-292.381
-257.58
-212.75
-157.524
-89.0779
-4.53287
116.015
264.377
674.135
548.4
398.082
221.47
29.1307
-180.419
-401.247
-619.895
-826.504
-1016.13
-1184.11
-1327.25
-1445.23
-1538.76
-1608.9
-1657.28
-1686.34
-1698.91
-1698.29
-1688
-1671.21
-1649.98
-1624.66
-1593.61
-1553.23
-1499.6
-1432.46
-1354.06
-1265.55
-1167.18
-1059.62
-943.755
-820.113
-688.403
-547.802
-394.357
-224.878
-16.5457
209.023
745.048
844.04
941.517
1029.74
1102.65
1162.15
1204.81
1228.44
1232.39
1216.22
1179.93
1123.91
1049.4
957.988
851.939
734.242
608.446
478.557
348.907
223.863
107.722
4.18712
-84.0297
-155.801
-211.906
-254.881
-287.047
-308.367
-318.067
-316.4
-303.968
-281.118
-248.101
-204.882
-151.084
-83.9702
-0.852493
116.87
258.764
641.121
527.546
391.556
231.468
57.318
-132.951
-334.319
-534.591
-724.987
-901.653
-1060.56
-1198.71
-1315.87
-1412.25
-1488.33
-1544.99
-1583.85
-1606.92
-1616.7
-1615.9
-1607.15
-1592.31
-1571.9
-1544.79
-1508.31
-1459.33
-1397.14
-1323.39
-1239.2
-1144.88
-1041.04
-928.49
-807.775
-678.635
-540.294
-388.99
-221.893
-17.7453
200.127
701.292
791.501
880.67
961.419
1028.35
1083.5
1123.63
1146.92
1152.84
1140.95
1111.15
1063.58
999.061
918.74
824.314
718.218
603.437
483.488
362.302
243.965
132.574
31.7749
-55.5997
-128.107
-186.004
-231.069
-265.158
-288.426
-300.237
-300.704
-290.325
-269.438
-238.256
-196.715
-144.426
-78.7576
2.77734
117.392
252.815
606.561
503.352
379.591
233.649
75.0672
-98.5431
-282.934
-466.837
-642.381
-806.512
-955.745
-1087.27
-1201.05
-1297.21
-1376.03
-1438.03
-1484.14
-1515.65
-1534.27
-1541.96
-1540.76
-1532.2
-1516.89
-1494.06
-1461.77
-1417.53
-1360.38
-1291.44
-1211.73
-1121.6
-1021.61
-912.528
-794.875
-668.444
-532.512
-383.525
-219.003
-19.3953
190.653
658.415
741.033
822.961
897.163
958.83
1010.01
1047.71
1070.43
1077.72
1069.18
1044.69
1004.25
948.379
877.872
793.99
698.663
594.362
484.126
371.465
260.126
153.959
56.5142
-29.3243
-101.857
-160.903
-207.622
-243.402
-268.453
-282.244
-284.772
-276.409
-257.471
-228.136
-188.309
-137.592
-73.4669
6.33442
117.584
246.55
571.634
477.324
364.106
230.372
85.2198
-73.9493
-243.462
-412.886
-575.062
-727.545
-867.273
-991.728
-1101.05
-1195.45
-1275.01
-1340.09
-1391.2
-1429.01
-1454.66
-1469.46
-1474.89
-1472.15
-1461.75
-1443.19
-1415.04
-1375.33
-1323.02
-1258.78
-1183.5
-1097.57
-1001.48
-895.935
-781.449
-657.846
-524.462
-377.972
-216.233
-21.4967
180.695
616.977
692.951
768.505
836.926
893.912
941.488
976.866
998.847
1007.05
1001.13
981.002
946.555
898.136
836.269
761.86
676.425
581.97
481.081
376.839
272.635
172.045
78.4679
-5.21337
-77.1147
-136.699
-184.615
-221.812
-248.454
-264.073
-268.574
-262.186
-245.188
-217.719
-179.651
-130.576
-68.1031
9.80893
117.447
239.995
537.132
450.573
346.532
223.47
90.0253
-56.4856
-212.852
-369.389
-519.483
-661.168
-791.747
-908.946
-1013.07
-1104.41
-1183.07
-1249.32
-1303.46
-1345.77
-1376.87
-1397.57
-1408.81
-1411.42
-1405.78
-1391.5
-1367.52
-1332.27
-1284.72
-1225.18
-1154.37
-1072.69
-980.587
-878.684
-767.48
-646.836
-516.151
-372.343
-213.608
-24.0478
170.287
577.269
647.398
717.288
780.571
833.364
877.649
910.839
931.961
940.743
936.895
920.331
890.932
848.915
794.611
728.659
652.228
566.922
474.909
378.859
281.799
187.005
97.6934
16.6916
-53.9909
-113.538
-162.196
-200.513
-228.538
-245.821
-252.185
-247.714
-232.632
-207.035
-170.762
-123.394
-62.681
13.1889
116.995
233.178
503.553
423.778
327.817
214.146
91.0109
-44.3464
-189.05
-334.049
-473.245
-605.009
-726.952
-837
-935.603
-1023.19
-1099.88
-1165.96
-1221.62
-1266.88
-1302
-1327.38
-1343.53
-1350.9
-1349.71
-1339.58
-1319.66
-1288.72
-1245.76
-1190.82
-1124.46
-1047.04
-958.966
-860.786
-752.972
-635.417
-507.583
-366.646
-211.143
-27.0491
159.465
539.456
604.399
669.214
727.902
776.913
818.189
849.339
869.55
878.663
876.427
862.794
837.644
801.12
753.423
694.981
626.684
549.805
466.134
377.959
287.948
199.061
114.306
36.4144
-32.5347
-91.5194
-140.474
-179.598
-208.778
-227.544
-235.645
-233.022
-219.822
-196.097
-161.652
-116.057
-57.2123
16.461
116.24
226.126
471.178
397.423
308.603
203.28
89.2762
-36.1574
-170.435
-305.091
-434.427
-557.109
-670.963
-774.106
-867.098
-950.476
-1024.43
-1089.3
-1145.24
-1192.14
-1230.02
-1258.97
-1279.15
-1290.68
-1293.57
-1287.39
-1271.43
-1244.66
-1206.14
-1155.72
-1093.78
-1020.63
-936.626
-842.247
-737.927
-623.589
-498.763
-360.891
-208.848
-30.4778
148.267
503.608
563.902
624.156
678.714
724.31
762.825
792.066
811.354
820.605
819.621
808.406
786.847
755.04
713.1
661.301
600.32
531.149
455.251
374.558
291.398
208.431
128.427
53.9882
-12.7876
-70.7376
-119.562
-159.168
-189.262
-209.321
-219.015
-218.156
-206.793
-184.932
-152.341
-108.582
-51.7111
19.6169
115.195
218.877
440.187
371.792
289.357
191.488
85.6404
-30.9156
-155.837
-281.159
-401.568
-515.92
-622.25
-718.818
-806.281
-885.257
-955.995
-1018.92
-1074.2
-1121.69
-1161.27
-1192.79
-1216.14
-1231.19
-1237.73
-1235.25
-1223.05
-1200.27
-1166.01
-1119.98
-1062.39
-993.501
-913.592
-823.079
-722.353
-611.359
-489.695
-355.083
-206.729
-34.3139
136.744
469.722
525.829
581.971
632.8
675.296
711.268
738.732
757.101
766.354
766.348
757.133
738.61
710.855
673.928
628.002
573.572
511.408
442.695
369.05
292.484
215.358
140.205
69.4724
5.2326
-51.2681
-99.5631
-139.325
-170.079
-191.228
-202.355
-203.162
-193.581
-173.565
-142.849
-100.986
-46.1913
22.6461
113.881
211.463
410.677
347.086
270.376
179.215
80.6908
-27.8758
-144.355
-261.226
-373.515
-480.235
-579.588
-669.953
-752.05
-826.559
-893.809
-954.287
-1008.21
-1055.44
-1095.81
-1129.01
-1154.75
-1172.68
-1182.4
-1183.29
-1174.64
-1155.63
-1125.45
-1083.67
-1030.36
-965.693
-889.895
-803.303
-706.26
-598.733
-480.388
-349.23
-204.784
-38.5194
124.945
437.769
490.094
542.507
589.947
629.619
663.258
689.07
706.53
715.688
716.448
708.887
692.939
668.675
636.118
595.367
546.786
490.962
428.85
361.794
291.515
220.088
149.807
82.954
21.5412
-33.1519
-80.5522
-120.153
-151.311
-173.338
-185.732
-188.092
-180.226
-162.029
-133.201
-93.2868
-40.668
25.5434
112.321
203.919
382.682
323.421
251.88
166.785
74.8666
-26.468
-135.286
-244.485
-349.363
-449.086
-541.973
-626.512
-703.468
-773.57
-837.187
-894.897
-946.966
-993.291
-1033.7
-1067.82
-1095.23
-1115.41
-1127.84
-1131.75
-1126.37
-1110.91
-1084.58
-1046.89
-997.756
-937.264
-865.571
-782.941
-689.665
-585.724
-470.85
-343.337
-203.011
-43.0561
112.922
407.694
456.585
505.596
549.954
587.038
618.546
642.812
659.396
668.391
669.743
663.559
649.808
628.552
599.806
563.613
520.243
470.14
414.064
353.126
288.79
222.863
157.411
94.5398
36.1693
-16.4211
-62.6024
-101.74
-133.043
-155.733
-169.214
-173.002
-166.772
-150.357
-123.423
-85.5075
-35.1552
28.3027
110.539
196.29
356.202
300.864
234.012
154.429
68.5067
-26.2613
-128.096
-230.285
-328.395
-421.681
-508.581
-587.673
-659.749
-725.562
-785.522
-840.267
-890.134
-935.07
-974.921
-1009.31
-1037.75
-1059.62
-1074.25
-1080.81
-1078.4
-1066.24
-1043.53
-1009.74
-964.662
-908.275
-840.666
-762.025
-672.587
-572.343
-461.092
-337.407
-201.407
-47.8772
100.741
379.427
425.185
471.091
512.624
547.348
576.888
599.719
615.458
624.25
626.057
621.024
609.148
590.497
565.076
532.904
494.172
449.214
398.635
343.346
284.586
223.922
163.198
104.341
49.1648
-1.08533
-45.7656
-84.1569
-115.353
-138.487
-152.873
-157.951
-153.269
-138.589
-113.546
-77.6703
-29.669
30.9211
108.562
188.613
331.213
279.446
216.869
142.31
61.8613
-26.9146
-122.361
-218.129
-310.023
-397.378
-478.731
-552.741
-620.21
-681.897
-738.249
-789.948
-837.39
-880.585
-919.425
-953.555
-982.462
-1005.48
-1021.86
-1030.66
-1030.91
-1021.76
-1002.43
-972.344
-931.169
-878.796
-815.233
-740.592
-655.053
-558.609
-451.122
-331.444
-199.959
-52.9373
88.462
352.888
395.784
438.843
477.786
510.341
538.071
559.565
574.504
583.057
585.214
581.145
570.878
554.487
531.979
503.351
468.745
428.407
382.817
332.72
279.16
223.491
167.349
112.483
60.5916
12.8637
-30.0759
-67.4659
-98.3141
-121.674
-136.778
-143.002
-139.768
-126.768
-103.604
-69.801
-24.2244
33.3975
106.42
180.931
307.677
259.173
200.505
130.55
55.1082
-28.1691
-117.75
-207.612
-293.783
-375.663
-451.878
-521.149
-584.271
-642.023
-694.863
-743.509
-788.401
-829.614
-867.096
-900.545
-929.451
-953.138
-970.818
-981.475
-984.035
-977.611
-961.413
-934.803
-897.37
-848.904
-789.33
-718.686
-637.092
-544.542
-440.955
-325.449
-198.654
-58.1848
76.1464
328.003
368.267
408.707
445.27
475.831
501.89
522.145
536.323
544.618
547.043
543.79
534.909
520.483
500.526
475.027
444.091
407.896
366.824
321.484
272.752
221.79
170.047
119.104
70.534
25.452
-15.5537
-51.7169
-81.9919
-105.367
-121.003
-128.218
-126.324
-114.939
-93.632
-61.9264
-18.8362
35.7337
104.144
173.287
285.545
240.035
184.955
119.233
48.3924
-29.8314
-114.005
-198.424
-279.312
-356.121
-427.562
-492.419
-551.468
-605.484
-654.939
-700.569
-742.859
-781.937
-817.816
-850.252
-878.768
-902.709
-921.276
-933.406
-937.944
-933.946
-920.603
-897.243
-863.371
-818.684
-763.024
-696.356
-618.741
-530.165
-430.602
-319.421
-197.472
-63.5646
63.8596
304.684
342.522
380.55
414.919
443.64
468.16
487.265
500.723
508.747
511.377
508.815
501.133
488.424
470.709
447.977
420.304
387.824
350.838
309.84
265.567
219.018
171.468
124.34
79.0812
36.7221
-2.20302
-36.9474
-66.4421
-89.6313
-105.616
-113.664
-112.995
-103.151
-83.67
-54.0747
-13.5201
37.9319
101.766
165.725
264.763
222.006
170.233
108.415
41.8179
-31.7432
-110.921
-190.298
-266.294
-338.401
-405.406
-466.144
-521.373
-571.855
-618.071
-660.769
-700.459
-737.324
-771.439
-802.612
-830.427
-854.261
-873.344
-886.587
-892.771
-890.897
-880.137
-859.785
-829.278
-788.225
-736.389
-673.66
-600.039
-515.506
-420.078
-313.358
-196.391
-69.0238
51.6698
282.847
318.45
354.247
386.591
413.615
436.709
454.746
467.526
475.28
478.06
476.087
469.447
458.242
442.504
422.221
397.455
368.303
335.002
297.961
257.793
215.359
171.779
128.328
86.3289
46.7246
9.98688
-23.1807
-51.7121
-74.5286
-90.6845
-99.4056
-99.8396
-91.4554
-73.7585
-46.2758
-8.29028
39.9968
99.3161
158.284
245.273
205.056
156.335
98.1325
35.4571
-33.7876
-108.33
-183.029
-254.476
-322.217
-385.087
-441.981
-493.636
-540.795
-583.929
-623.797
-660.932
-695.56
-727.806
-757.542
-784.411
-807.844
-827.114
-841.139
-848.65
-848.599
-840.144
-822.554
-795.202
-757.623
-709.503
-650.658
-581.032
-500.593
-409.397
-307.257
-195.384
-74.5047
39.64
262.414
295.949
329.682
360.151
385.602
407.379
424.424
436.566
444.052
446.946
445.476
439.745
429.861
415.869
397.76
375.585
349.415
319.44
285.995
249.599
210.984
171.141
131.203
92.379
55.5242
21.0388
-10.4298
-37.8409
-60.1132
-76.2725
-85.506
-86.9188
-79.9046
-63.9415
-38.56
-3.16225
41.9351
96.8273
151.007
227.015
189.15
143.256
88.4042
29.3647
-35.8696
-106.102
-176.445
-243.665
-307.335
-366.349
-419.651
-467.957
-511.988
-552.208
-589.372
-624.024
-656.427
-686.754
-714.935
-740.675
-763.47
-782.642
-797.15
-805.687
-807.172
-800.748
-785.669
-761.259
-726.98
-682.45
-627.42
-561.772
-485.459
-398.574
-301.112
-194.422
-79.9505
27.8373
243.309
274.923
306.743
335.472
359.466
380.024
396.145
407.689
414.914
417.891
416.853
411.918
403.202
390.758
374.581
354.718
331.222
304.247
274.068
241.123
206.043
169.696
133.096
97.3387
63.1943
30.9904
1.30881
-24.8526
-46.4287
-62.4346
-72.028
-74.2918
-68.5518
-54.2614
-30.9588
1.85124
43.7532
94.3298
143.932
209.929
174.243
130.976
79.2428
23.584
-37.9161
-104.133
-170.418
-233.692
-293.558
-348.969
-398.915
-444.086
-485.175
-522.641
-557.235
-589.501
-619.728
-648.124
-674.681
-699.167
-721.139
-739.974
-754.693
-763.98
-766.725
-762.068
-749.247
-727.555
-696.397
-655.319
-604.014
-542.312
-470.144
-387.625
-294.918
-193.471
-85.3047
16.3252
225.457
255.286
285.328
312.442
335.084
354.51
369.771
380.756
387.727
390.762
390.1
385.866
378.182
367.112
352.659
334.862
313.765
289.495
262.28
232.489
200.667
167.579
134.129
101.309
69.8058
39.8812
12.0423
-12.7659
-33.5136
-49.2224
-59.0317
-62.0175
-57.4504
-44.7644
-23.5027
6.73425
45.4609
91.8531
137.095
193.955
160.296
119.472
70.6475
18.1394
-39.8777
-102.34
-164.831
-224.416
-280.725
-332.762
-379.568
-421.803
-460.136
-495.012
-527.168
-557.152
-585.269
-611.76
-636.662
-659.809
-680.814
-699.124
-713.824
-723.609
-727.356
-724.213
-713.408
-694.209
-665.975
-628.201
-580.518
-522.706
-454.68
-376.568
-288.665
-192.498
-90.511
5.16614
208.787
236.955
265.338
290.951
312.336
330.709
345.173
355.634
362.361
365.434
365.099
361.485
354.72
344.876
331.959
316.012
297.071
275.242
250.712
223.798
194.974
164.912
134.42
104.392
75.4415
47.7625
21.7945
-1.58754
-21.3965
-36.6799
-46.5697
-50.1517
-46.6533
-35.493
-16.2257
11.4744
47.0653
89.4211
130.527
179.035
147.263
108.72
62.6098
13.0472
-41.7142
-100.662
-159.595
-215.725
-268.702
-317.577
-361.439
-400.921
-436.667
-469.113
-498.969
-526.783
-552.874
-577.505
-600.757
-622.512
-642.453
-660.091
-674.574
-684.636
-689.153
-687.28
-678.253
-661.326
-635.822
-601.19
-557.01
-503.02
-439.11
-365.422
-282.348
-191.467
-95.5203
-5.58126
193.229
219.847
246.685
270.897
291.115
308.508
322.23
332.203
338.694
341.794
341.744
338.681
332.734
323.984
312.445
298.156
281.153
261.524
239.43
215.139
189.065
161.803
134.073
106.685
80.1791
54.6928
30.5939
8.68745
-10.0982
-24.8446
-34.6914
-38.747
-36.2118
-26.4926
-9.15635
16.0573
48.5731
87.0602
124.256
165.113
135.104
98.6911
55.1219
8.31474
-43.3972
-99.0465
-154.642
-207.528
-257.375
-303.285
-344.385
-381.288
-414.607
-444.769
-472.463
-498.227
-522.386
-545.223
-566.849
-587.195
-606.009
-622.859
-636.963
-647.111
-652.184
-651.36
-643.884
-629.009
-606.036
-574.378
-533.571
-483.313
-423.477
-354.2
-275.959
-190.346
-100.275
-15.861
178.72
203.89
229.283
252.189
271.32
287.8
300.83
310.346
316.615
319.729
319.928
317.357
312.144
304.374
294.069
281.273
266.014
248.371
228.482
206.581
183.026
158.346
133.187
108.277
84.0955
60.7281
38.4753
18.0682
0.370468
-13.7463
-23.4408
-27.853
-26.1732
-17.8053
-2.32605
20.4708
49.9961
84.7892
118.304
152.133
123.773
89.3543
48.1688
3.94491
-44.9036
-97.4553
-149.911
-199.746
-246.653
-289.775
-328.285
-362.77
-393.818
-421.836
-447.498
-471.326
-493.654
-514.771
-534.817
-553.764
-571.413
-587.394
-600.99
-611.059
-616.506
-616.524
-610.39
-597.357
-576.717
-547.855
-510.281
-463.653
-407.822
-342.927
-269.49
-189.092
-104.731
-25.6226
165.199
189.013
213.053
234.74
252.856
268.485
280.87
289.958
296.016
299.138
299.557
297.424
292.87
285.98
276.787
265.331
251.645
235.797
217.907
198.179
176.929
154.627
131.85
109.257
87.2708
65.9322
45.4824
26.5757
10.0075
-3.40439
-12.851
-17.5122
-16.583
-9.46955
4.23665
24.7024
51.3374
82.6272
112.69
140.044
113.228
80.6794
41.7315
-0.0664813
-46.2221
-95.8587
-145.356
-192.32
-236.457
-276.957
-313.034
-345.247
-374.167
-400.18
-423.938
-445.951
-466.545
-486.025
-504.55
-522.124
-538.594
-553.654
-566.647
-576.503
-582.158
-582.838
-577.848
-566.456
-547.954
-521.714
-487.218
-444.102
-392.192
-331.62
-262.933
-187.679
-108.842
-34.8226
152.606
175.149
197.921
218.467
235.636
250.471
262.254
270.942
276.801
279.923
280.538
278.799
274.837
268.741
260.547
250.303
238.036
223.809
207.73
189.979
170.834
150.715
130.14
109.702
89.7769
70.3681
51.6596
34.2345
18.8183
6.16684
-2.9511
-7.76283
-7.48116
-1.52345
10.5052
28.7395
52.6038
80.5866
107.427
128.794
103.427
72.6355
35.7915
-3.72415
-47.3453
-94.2322
-140.944
-185.2
-226.728
-264.756
-298.544
-328.627
-355.55
-379.687
-401.663
-421.974
-440.942
-458.872
-475.942
-492.184
-507.485
-521.594
-533.914
-543.446
-549.172
-550.354
-546.328
-536.387
-519.834
-496.036
-464.461
-424.722
-376.631
-320.299
-256.284
-186.073
-112.57
-43.4211
140.885
162.237
183.819
203.296
219.579
233.671
244.893
253.208
258.878
261.995
262.784
261.4
257.972
252.592
245.302
236.149
225.165
212.406
197.97
182.016
164.791
146.672
128.124
109.685
91.6836
74.095
57.0547
41.0769
26.8149
14.9625
6.2387
1.36465
1.09707
6.00093
16.4547
32.5699
53.7993
78.6772
102.52
118.337
94.3295
65.1897
30.3285
-7.03833
-48.2698
-92.5624
-136.645
-178.345
-217.412
-253.112
-284.746
-312.829
-337.879
-360.26
-380.571
-399.288
-416.732
-433.205
-448.893
-463.853
-478.009
-491.156
-502.756
-511.883
-517.565
-519.109
-515.886
-507.222
-492.437
-470.903
-442.083
-405.577
-361.181
-308.988
-249.539
-184.246
-115.878
-51.3839
129.984
150.215
170.68
189.155
204.608
218.006
228.703
236.668
242.16
245.268
246.214
245.149
242.205
237.473
231
222.835
213.01
201.581
188.634
174.312
158.837
142.548
125.863
109.269
93.0545
77.1726
61.7172
47.1372
34.0168
22.9846
14.7064
9.84661
9.12253
13.0746
22.063
36.184
54.9252
76.9052
97.9725
108.624
85.8967
58.3121
25.3195
-10.0206
-48.9966
-90.8404
-132.435
-171.722
-208.467
-241.971
-271.577
-297.779
-321.077
-341.815
-360.571
-377.801
-393.818
-408.925
-423.31
-437.049
-450.095
-462.287
-473.139
-481.796
-487.343
-489.13
-486.57
-479.021
-465.832
-446.386
-420.154
-386.728
-345.889
-297.708
-242.696
-182.178
-118.738
-58.6855
119.853
139.03
158.443
175.978
190.653
203.401
213.605
221.243
226.566
229.663
230.749
229.974
227.468
223.323
217.59
210.32
201.546
191.321
179.724
166.885
153.005
138.386
123.409
108.511
93.9498
79.6586
65.697
52.454
40.4481
30.2427
22.447
17.6669
16.5725
19.6738
27.3111
39.57
55.9826
75.2722
93.7794
99.6122
78.09
51.9718
20.7426
-12.6842
-49.5299
-89.0561
-128.3
-165.306
-199.854
-231.285
-258.983
-283.417
-305.071
-324.275
-341.581
-357.425
-372.114
-385.942
-399.104
-411.685
-423.668
-434.923
-445.018
-453.165
-458.505
-460.434
-458.411
-451.832
-440.077
-422.553
-398.74
-368.231
-330.795
-286.48
-235.761
-179.849
-121.126
-65.3094
110.444
128.629
147.052
163.702
177.648
189.786
199.529
206.86
212.024
215.107
216.317
215.806
213.697
210.086
205.024
198.565
190.743
181.609
171.237
159.746
147.315
134.221
120.804
107.463
94.4231
81.6061
69.0427
57.0677
46.1372
36.7524
29.463
24.8165
23.4303
25.7795
32.183
42.7193
56.9686
73.7754
89.9324
91.2588
70.8732
46.1385
16.5757
-15.0431
-49.8742
-87.2082
-124.227
-159.076
-191.547
-221.022
-246.919
-269.695
-289.81
-307.581
-323.533
-338.088
-351.542
-364.178
-376.196
-387.688
-398.658
-409.006
-418.347
-425.959
-431.038
-433.029
-431.434
-425.693
-415.224
-399.46
-377.897
-350.136
-315.94
-275.33
-228.733
-177.248
-123.026
-71.2412
101.714
118.963
136.452
152.27
165.53
177.095
186.406
193.448
198.462
201.528
202.852
202.578
200.83
197.703
193.252
187.529
180.57
172.426
163.166
152.898
141.786
130.078
118.086
106.168
94.5233
83.066
71.803
61.0206
51.1173
42.5346
35.7634
31.294
29.6866
31.3788
36.6662
45.6235
57.8798
72.4097
86.4182
83.5239
64.2105
40.783
12.7954
-17.1136
-50.0383
-85.2964
-120.207
-153.014
-183.523
-211.15
-235.353
-256.57
-275.241
-291.674
-306.367
-319.725
-332.031
-343.561
-354.513
-364.985
-374.997
-384.475
-393.079
-400.14
-404.922
-406.912
-405.653
-400.636
-391.314
-377.154
-357.677
-332.492
-301.36
-264.28
-221.622
-174.364
-124.429
-76.4763
93.6192
109.985
126.594
141.627
154.241
165.268
174.173
180.943
185.814
188.863
190.287
190.23
188.81
186.124
182.226
177.172
170.997
163.751
155.5
146.343
136.427
125.982
115.285
104.664
94.2952
84.0856
74.0244
64.3551
55.4236
47.6152
41.364
37.105
35.3388
36.4642
40.7525
48.2752
58.7117
71.166
83.2196
76.3693
58.069
35.8766
9.38004
-18.911
-50.0298
-83.3214
-116.236
-147.11
-175.762
-201.645
-224.251
-244.004
-261.324
-276.507
-290.03
-302.276
-313.519
-324.024
-333.985
-343.506
-352.619
-361.271
-369.16
-375.671
-380.13
-382.069
-381.072
-376.676
-368.375
-355.674
-338.122
-315.34
-287.092
-253.353
-214.437
-171.2
-125.328
-81.0161
86.1194
101.65
117.428
131.721
143.728
154.247
162.77
169.284
174.019
177.049
178.562
178.702
177.581
175.296
171.903
167.455
161.992
155.561
148.224
140.075
131.246
121.946
112.427
102.985
93.7773
84.7076
75.7511
67.1137
59.0937
52.0247
46.2861
42.2608
40.3903
41.0336
44.4367
50.6686
59.4574
70.0328
80.3164
69.7589
52.4157
31.3928
6.30759
-20.4512
-49.8601
-81.287
-112.311
-141.354
-168.25
-192.485
-213.587
-231.964
-248.02
-262.038
-274.472
-285.688
-295.948
-305.506
-314.55
-323.19
-331.462
-339.333
-346.538
-352.509
-356.633
-358.482
-357.685
-353.821
-346.429
-335.052
-319.267
-298.717
-273.168
-242.573
-207.191
-167.758
-125.731
-84.8697
79.1767
93.9191
108.91
122.505
133.939
143.979
152.142
158.414
163.02
166.029
167.622
167.94
167.091
165.171
162.236
158.34
153.523
147.832
141.324
134.088
126.245
117.983
109.533
101.16
93.0048
84.972
77.0255
69.3384
62.1665
55.7959
50.5555
46.7792
44.8509
45.0902
47.7177
52.8
60.1099
68.9959
77.6852
63.6574
47.2203
27.3039
3.55657
-21.7508
-49.5381
-79.198
-108.429
-135.739
-160.975
-183.654
-203.34
-220.425
-235.298
-248.229
-259.653
-269.916
-279.268
-287.953
-296.151
-303.974
-311.465
-318.606
-325.16
-330.609
-334.394
-336.128
-335.481
-332.073
-325.487
-315.307
-301.14
-282.652
-259.615
-231.963
-199.901
-164.048
-125.646
-88.0499
72.7554
86.7512
100.998
113.934
124.826
134.414
142.237
148.28
152.762
155.748
157.413
157.891
157.29
155.702
153.183
149.789
145.559
140.538
134.783
128.373
121.423
114.101
106.617
99.2117
92.0086
84.915
77.8873
71.0702
64.6812
58.9646
54.2022
50.6827
48.7358
48.6424
50.5983
54.6668
60.6616
68.0397
75.3008
58.0326
42.4529
23.5851
1.10533
-22.8257
-49.0764
-77.0603
-104.592
-130.261
-153.926
-175.137
-193.489
-209.362
-223.129
-235.049
-245.535
-254.917
-263.432
-271.313
-278.734
-285.804
-292.573
-299.034
-304.975
-309.923
-313.373
-314.977
-314.439
-311.422
-305.553
-296.451
-283.761
-267.17
-246.458
-221.545
-192.584
-160.085
-125.087
-90.5778
66.8213
80.1103
93.6531
105.964
116.344
125.505
133.006
138.833
143.195
146.157
147.884
148.508
148.131
146.844
144.705
141.766
138.068
133.655
128.581
122.921
116.777
110.305
103.694
97.1611
90.8166
84.5705
78.3746
72.3491
66.6782
61.5686
57.2597
53.9985
52.0652
51.7035
53.0848
56.2685
61.1049
67.1473
73.1372
52.853
38.0861
20.2114
-1.06564
-23.6922
-48.4849
-74.8797
-100.801
-124.917
-147.097
-166.922
-184.02
-198.757
-211.489
-222.469
-232.086
-240.654
-248.399
-255.543
-262.25
-268.629
-274.733
-280.561
-285.93
-290.406
-293.53
-294.993
-294.533
-291.853
-286.619
-278.489
-267.141
-252.287
-233.717
-211.34
-185.26
-155.888
-124.077
-92.4775
61.3424
73.9612
86.8367
98.5557
108.452
117.208
124.404
130.024
134.273
137.208
138.989
139.744
139.571
138.557
136.762
134.237
131.021
127.159
122.702
117.718
112.303
106.598
100.774
95.0258
89.4526
83.9684
78.5221
73.2134
68.197
63.6465
59.7634
56.7572
54.8633
54.2903
55.1865
57.6068
61.4325
66.3014
71.1667
48.0893
34.0924
17.1602
-2.97648
-24.3654
-47.7757
-72.6635
-97.0586
-119.704
-140.481
-158.999
-174.918
-188.59
-200.357
-210.462
-219.274
-227.093
-234.13
-240.598
-246.652
-252.398
-257.89
-263.137
-267.974
-272.006
-274.82
-276.138
-275.734
-273.344
-268.673
-261.417
-251.285
-238.015
-221.409
-201.367
-177.951
-151.48
-122.641
-93.7781
56.2881
68.2717
80.5137
91.6725
101.11
109.483
116.389
121.812
125.949
128.857
130.684
131.556
131.566
130.801
129.318
127.167
124.389
121.025
117.125
112.753
107.995
102.981
97.8637
92.8205
87.9383
83.1366
78.3633
73.7
69.2765
65.2373
61.7507
58.9921
57.1577
56.4235
56.9161
58.6852
61.638
65.4847
69.3624
43.7137
30.4468
14.4086
-4.64592
-24.8612
-46.9603
-70.4188
-93.3669
-114.621
-134.073
-151.36
-166.17
-178.845
-189.712
-199.005
-207.074
-214.201
-220.59
-226.438
-231.897
-237.065
-241.999
-246.711
-251.057
-254.676
-257.197
-258.373
-258.007
-255.868
-251.697
-245.224
-236.191
-224.36
-209.546
-191.644
-170.678
-146.887
-120.811
-94.5143
51.6299
63.0106
74.6515
85.2786
94.2806
102.289
108.919
114.154
118.184
121.061
122.927
123.904
124.08
123.539
122.338
120.526
118.143
115.231
111.833
108.012
103.846
99.453
94.9709
90.5584
86.2933
82.1008
77.9289
73.8443
69.9549
66.3802
63.2596
60.7386
58.9787
58.1267
58.2888
59.5092
61.7162
64.6804
67.6978
39.6994
27.1253
11.9352
-6.09193
-25.1934
-46.0483
-68.1515
-89.7304
-109.669
-127.869
-143.996
-157.766
-169.508
-179.536
-188.075
-195.458
-201.95
-207.744
-213.028
-217.943
-222.584
-227.01
-231.234
-235.129
-238.367
-240.614
-241.652
-241.313
-239.392
-235.665
-229.894
-221.852
-211.324
-198.138
-182.186
-163.464
-142.137
-118.619
-94.722
47.3407
58.149
69.219
79.341
87.9297
95.5914
101.959
107.013
110.939
113.783
115.681
116.749
117.074
116.736
115.79
114.285
112.259
109.752
106.808
103.483
99.8498
96.0135