/*--------------------------------*- C++ -*----------------------------------*\
| =========                 |                                                 |
| \\      /  F ield         | OpenFOAM: The Open Source CFD Toolbox           |
|  \\    /   O peration     | Version:  v1806                                 |
|   \\  /    A nd           | Web:      www.OpenFOAM.com                      |
|    \\/     M anipulation  |                                                 |
\*---------------------------------------------------------------------------*/
FoamFile
{
    version     2.0;
    format      ascii;
    class       volScalarField;
    location    "282";
    object      p;
}
// * * * * * * * * * * * * * * * * * * * * * * * * * * * * * * * * * * * * * //

dimensions      [0 2 -2 0 0 0 0];


internalField   nonuniform List<scalar> 
10720
(
-468.4
-13.8651
469.389
906.92
1274.68
1568.65
1775.56
1892.32
1930.84
1915.4
1843.56
1720.61
1566.1
1390.73
1200.97
1004.66
808.364
619.697
442.554
283.716
146.282
36.0189
-48.0361
-105.549
-144.783
-180.939
-214.02
-235.53
-245.602
-245.642
-235.881
-216.731
-188.65
-151.805
-106.139
-48.9509
22.9975
133.123
301.106
-962.132
-1450.78
-2052.37
-2687.93
-3301.54
-3885.69
-4382.12
-4699.07
-4813.18
-4807.69
-4695.07
-4485.35
-4235.93
-3977.79
-3717.56
-3473.01
-3241.38
-3027.21
-2833.99
-2670.68
-2536.38
-2428.91
-2339.67
-2258.56
-2161.38
-2038.42
-1904.81
-1765.81
-1621.18
-1470.54
-1315.01
-1155.51
-992.427
-824.924
-651.965
-468.332
-271.323
-31.8283
220.139
169.399
484.598
797.046
1094.39
1356.9
1576.69
1741.77
1844.21
1886.33
1875.28
1813.01
1707.75
1571.79
1413.46
1239
1055.42
869.268
687.287
514.272
356.197
217.064
101.774
10.7543
-55.9568
-104.795
-147.581
-185.047
-210.736
-224.509
-227.754
-220.875
-204.299
-178.478
-143.565
-99.4659
-43.4866
27.5308
137.158
298.808
-156.185
-517.624
-930.805
-1381.29
-1846.98
-2311.39
-2741.9
-3100.37
-3360.54
-3520.82
-3589.9
-3590.92
-3550.18
-3476.13
-3367.43
-3233.53
-3079.41
-2917.17
-2758.58
-2616.45
-2494.22
-2392.31
-2304.7
-2222.68
-2126.59
-2007.78
-1878.19
-1742.89
-1601.77
-1454.47
-1301.99
-1145.16
-984.321
-818.666
-647.169
-464.67
-268.569
-29.3621
217.638
276.407
564.956
848.282
1112.45
1342.71
1535.34
1681.37
1775.04
1818.52
1815.01
1765.42
1675.81
1554.37
1408.52
1244.81
1069.91
890.416
712.849
542.674
385.543
245.976
128.405
34.1597
-36.9144
-89.7607
-134.047
-171.94
-198.703
-213.663
-218.075
-212.397
-196.979
-172.233
-138.28
-94.9787
-39.6323
30.9104
139.725
295.753
-15.0196
-331.509
-690.029
-1095.72
-1522.94
-1955.39
-2371.1
-2736.41
-3017.37
-3204.8
-3314.64
-3355.7
-3341
-3282.35
-3189.1
-3072.31
-2940.36
-2802.32
-2666.67
-2542.17
-2432.58
-2338.6
-2255.85
-2176.91
-2086.23
-1975.04
-1851.73
-1721.39
-1584.34
-1440.45
-1290.76
-1136.22
-977.25
-813.125
-642.846
-461.334
-266.053
-27.7562
216.43
424.226
659.252
892.589
1113.69
1308.59
1475.35
1605.18
1692.08
1737.08
1740.72
1702.85
1628.08
1522.34
1391.75
1242.27
1079.99
911.073
741.72
577.534
423.984
285.804
167.242
70.2355
-5.19468
-62.8044
-110.436
-150.8
-180.275
-197.853
-204.617
-201.092
-187.585
-164.494
-131.938
-89.7635
-35.3069
34.5096
142.052
292.597
185.723
-74.7899
-375.282
-714.58
-1074.43
-1445.88
-1810.47
-2141.94
-2419.18
-2635.8
-2794.88
-2896.6
-2944.91
-2947.49
-2912.41
-2847.78
-2761.6
-2661.94
-2556.96
-2454.83
-2360.72
-2276.45
-2199.49
-2124.01
-2038.26
-1934.34
-1817.69
-1693.15
-1561.28
-1421.95
-1276.15
-1124.83
-968.474
-806.449
-637.825
-457.663
-263.55
-26.8141
214.76
477.43
684.536
890.679
1085.26
1256.64
1404.82
1521.96
1603.29
1649.12
1658.61
1631.35
1570.27
1479.56
1363.95
1228.61
1079
920.86
760.062
602.23
452.721
316.447
197.607
98.5799
19.7124
-41.7714
-92.0788
-134.112
-165.338
-184.659
-193.017
-190.996
-178.891
-157.081
-125.671
-84.476
-30.8487
38.1979
144.29
289.159
266.669
38.3489
-225.339
-525.565
-845.226
-1179.63
-1515.06
-1829.91
-2106.48
-2335.49
-2511.63
-2634.8
-2707.92
-2737.77
-2731.15
-2694.13
-2633.46
-2556.24
-2469.98
-2382.06
-2297.94
-2219.94
-2146.68
-2073.47
-1991.34
-1893.28
-1782.45
-1663.12
-1536.06
-1401.19
-1259.36
-1111.5
-958.087
-798.532
-631.929
-453.482
-260.922
-26.3153
211.728
510.719
691.98
873.654
1045.66
1197.49
1330.24
1436.66
1513.03
1558.99
1573
1554.67
1505.61
1428.71
1327.56
1206.41
1070.05
923.641
772.643
622.494
478.45
345.412
227.573
127.642
46.3376
-18.2913
-71.0834
-114.876
-148.003
-169.344
-179.641
-179.48
-169.113
-148.875
-118.846
-78.8153
-26.1717
41.9548
146.305
285.351
326.187
126.845
-104.943
-369.7
-652.085
-950.203
-1252.77
-1540.64
-1799.21
-2020.55
-2200.25
-2338.05
-2434.91
-2493.47
-2517.47
-2510.94
-2479.18
-2428.2
-2364.58
-2294.9
-2224.49
-2156.07
-2089.25
-2020.57
-1943.3
-1851.5
-1746.7
-1632.63
-1510.28
-1379.7
-1241.72
-1097.27
-946.812
-789.822
-625.418
-448.939
-258.283
-26.4299
207.293
519.84
681.702
844.612
998.835
1135.01
1255.05
1352.36
1424.1
1469.56
1486.92
1475.84
1437.08
1372.54
1284.81
1177.27
1053.97
919.464
778.709
636.875
499.031
370.003
253.979
153.918
70.9249
3.75583
-51.2525
-96.6861
-131.534
-154.729
-166.799
-168.325
-159.54
-140.75
-112.018
-73.1098
-21.4583
45.678
148.036
281.208
354.834
177.216
-29.9173
-267.409
-520.887
-790.207
-1066.34
-1332.29
-1575.68
-1790.2
-1971.32
-2116.19
-2224.92
-2298.85
-2340.93
-2354.42
-2343.41
-2312.55
-2267.17
-2212.77
-2154.15
-2094.19
-2033.19
-1968.76
-1895.91
-1809.72
-1710.65
-1601.71
-1484.02
-1357.73
-1223.59
-1082.52
-935.017
-780.627
-618.507
-444.17
-255.728
-27.2586
201.504
517.124
662.621
809.715
949.034
1072.08
1181.25
1270.73
1338.09
1382.49
1402.26
1396.94
1366.82
1313.08
1237.53
1142.74
1032.06
909.392
779.184
646.214
515.283
391.089
277.785
178.489
94.6566
25.6676
-31.1677
-78.0712
-114.491
-139.447
-153.277
-156.524
-149.394
-132.146
-104.811
-67.1278
-16.5839
49.4163
149.497
276.765
368.679
209.395
23.0348
-191.2
-419.918
-664.058
-916.097
-1160.62
-1386.9
-1589.8
-1764.95
-1909.58
-2024.08
-2109.06
-2165.99
-2196.91
-2204.49
-2192.08
-2163.84
-2124.31
-2077.73
-2026.97
-1972.78
-1913.64
-1845.96
-1765.75
-1672.76
-1569.31
-1456.58
-1334.82
-1204.72
-1067.2
-922.773
-771.063
-611.316
-439.255
-253.298
-28.7774
194.404
505.775
637.699
771.53
898.301
1010.23
1110.01
1192.62
1255.85
1298.84
1320.2
1319.4
1296.43
1252
1187.29
1104.22
1005.46
894.3
774.632
650.779
527.224
408.476
298.61
200.83
116.903
46.7362
-11.5468
-59.7413
-97.5791
-124.181
-139.702
-144.621
-139.113
-123.388
-97.4503
-61.0164
-11.6425
53.1103
150.66
272.017
371.072
226.904
57.845
-136.966
-344.873
-567.629
-798.825
-1024.45
-1234.88
-1426.12
-1594.29
-1736.67
-1853.29
-1944.43
-2010.74
-2053.63
-2075
-2077.16
-2063.25
-2036.78
-2001.28
-1959.34
-1911.96
-1858.24
-1795.68
-1721.17
-1634.02
-1535.98
-1428.2
-1311.02
-1185.08
-1051.23
-910.017
-761.125
-603.872
-434.227
-250.973
-30.881
186.142
489.276
609.599
732.038
848.025
950.391
1042.01
1118.5
1177.81
1219.17
1241.47
1244.15
1227.05
1190.54
1135.37
1062.9
975.217
875.032
765.682
651.015
535.162
422.36
316.558
221.003
137.702
67.0053
7.70762
-41.544
-80.6152
-108.718
-125.849
-132.398
-128.506
-114.326
-89.8294
-54.7083
-6.59903
56.7694
151.531
266.978
366.316
235.057
80.7997
-97.3077
-287.281
-491.383
-704.147
-912.559
-1107.97
-1287.22
-1446.87
-1584.28
-1699.65
-1793.39
-1865.7
-1917.37
-1949.65
-1963.98
-1962.5
-1947.83
-1922.75
-1889.47
-1849.07
-1801.12
-1743.94
-1675.16
-1593.91
-1501.39
-1398.69
-1286.2
-1164.54
-1034.51
-896.667
-750.752
-596.157
-429.098
-248.723
-33.463
176.982
469.499
579.824
692.397
799.01
893.019
977.488
1048.49
1104.12
1143.74
1166.45
1171.78
1159.46
1129.65
1082.77
1019.78
942.257
852.377
752.965
647.39
539.385
432.875
331.643
238.919
156.889
86.2669
26.3899
-23.6604
-63.7713
-93.2218
-111.867
-119.988
-117.684
-105.047
-82.0111
-48.2478
-1.48421
60.3692
152.11
261.666
356.667
236.483
95.0048
-68.6604
-243.107
-430.937
-627.393
-820.381
-1002.02
-1169.77
-1320.6
-1452.1
-1564.66
-1658.64
-1734.14
-1791.58
-1831.75
-1855.5
-1864.21
-1859.65
-1843.92
-1818.79
-1785.24
-1743.14
-1691.39
-1628.27
-1552.8
-1465.78
-1368.18
-1260.46
-1143.17
-1017.07
-882.73
-739.934
-588.156
-423.874
-246.555
-36.4751
167.176
447.845
549.436
653.353
751.732
838.394
916.548
982.583
1034.73
1072.58
1095.35
1102.64
1094.19
1070
1030.3
975.704
907.392
827.076
737.102
640.372
540.209
440.212
343.949
254.58
174.406
104.423
44.4099
-6.15285
-47.0901
-77.7145
-97.7586
-107.381
-106.633
-95.5344
-73.9833
-41.6293
3.69854
63.9012
152.4
256.106
343.848
233.314
102.981
-48.0164
-208.869
-382.343
-564.255
-743.346
-912.306
-1069.13
-1211.11
-1336.08
-1444.53
-1536.94
-1613.49
-1674.39
-1720.1
-1751.06
-1768.04
-1772.14
-1764.77
-1747.25
-1720.38
-1684.15
-1637.91
-1580.37
-1510.63
-1429.11
-1336.67
-1233.78
-1120.96
-998.919
-868.205
-728.676
-579.877
-418.57
-244.5
-39.9071
156.849
425.214
519.127
615.379
706.466
786.614
859.138
920.661
969.543
1005.62
1028.19
1036.91
1031.57
1012.09
978.561
931.346
871.313
799.778
718.659
630.418
537.978
444.588
353.576
267.986
190.176
121.356
61.6426
10.8704
-30.6649
-62.2782
-83.5913
-94.6308
-95.3948
-85.821
-65.7707
-34.8724
8.93256
67.3522
152.41
250.32
329.023
226.938
106.44
-33.3794
-182.215
-342.975
-511.89
-678.412
-835.789
-982.381
-1115.79
-1234.01
-1337.71
-1427.47
-1503.51
-1566.07
-1615.36
-1651.54
-1674.97
-1686.21
-1686.11
-1675.51
-1654.97
-1624.51
-1583.7
-1531.65
-1467.51
-1391.47
-1304.2
-1206.19
-1097.92
-980.045
-853.094
-716.979
-571.329
-413.197
-242.593
-43.767
146.049
402.253
489.359
578.768
663.346
737.683
805.154
862.57
908.42
942.745
964.904
974.646
971.795
956.248
927.998
887.243
834.598
771.055
698.161
617.979
533.044
446.251
360.668
279.188
204.177
136.988
77.991
27.3212
-14.5724
-46.9771
-69.4137
-81.7741
-83.9937
-75.9243
-57.3868
-27.9894
14.2056
70.7088
152.151
244.333
312.994
218.412
106.623
-23.2303
-161.382
-310.772
-467.991
-623.151
-769.93
-907.017
-1032.22
-1143.72
-1242.3
-1328.64
-1403.04
-1465.84
-1517.13
-1556.88
-1585.18
-1602.19
-1608.28
-1603.86
-1589.24
-1564.34
-1528.87
-1482.19
-1423.53
-1352.89
-1270.8
-1177.71
-1074.07
-960.454
-837.394
-704.845
-562.515
-407.763
-240.856
-48.0443
134.805
379.408
460.417
543.69
622.416
691.552
754.456
808.108
851.161
883.766
905.371
915.812
914.951
902.679
878.942
843.814
797.726
741.412
676.096
603.483
525.747
445.449
365.381
288.254
216.398
151.251
93.361
43.1094
1.10481
-31.8847
-55.2862
-68.8588
-72.4671
-65.8728
-48.8535
-20.9983
19.5022
73.9614
151.635
238.177
296.342
208.455
104.468
-16.4651
-145.04
-284.21
-430.873
-575.703
-712.8
-841.059
-958.501
-1063.45
-1156.79
-1239.29
-1311.3
-1373.28
-1425.31
-1467.27
-1499.05
-1520.56
-1531.78
-1532.77
-1523.55
-1503.93
-1473.61
-1432.13
-1378.8
-1313.48
-1236.54
-1148.38
-1049.41
-940.156
-821.11
-692.273
-553.436
-402.272
-239.294
-52.728
123.167
356.974
432.49
510.229
583.667
648.126
706.871
757.075
797.542
828.487
849.449
860.339
861.058
851.508
831.616
801.385
761.094
711.276
652.89
587.328
516.434
442.449
367.889
295.272
226.849
164.093
107.668
58.1445
16.284
-17.0755
-41.272
-55.9354
-60.8532
-55.6962
-40.194
-13.9181
24.807
77.0984
150.879
231.882
279.487
197.609
100.636
-12.2486
-132.195
-262.129
-399.218
-534.635
-662.854
-782.943
-893.095
-991.747
-1079.85
-1158.26
-1227.38
-1287.76
-1339.58
-1382.62
-1416.73
-1441.59
-1456.95
-1462.57
-1458.2
-1443.49
-1418.09
-1381.61
-1333.43
-1273.3
-1201.46
-1118.23
-1023.98
-919.165
-804.247
-679.269
-544.098
-396.727
-237.903
-57.7825
111.184
335.155
405.71
478.427
547.064
607.289
662.241
709.285
747.346
776.703
796.97
808.11
810.074
802.791
786.176
760.19
725.007
681
628.913
569.873
505.427
437.516
368.388
300.359
235.577
175.501
120.861
72.3572
30.8917
-2.62097
-27.4346
-43.0576
-49.1945
-45.4282
-31.435
-6.77027
30.1032
80.1123
149.901
225.477
262.722
186.267
95.6421
-9.94474
-122.085
-243.624
-371.985
-498.808
-618.868
-731.403
-834.722
-927.373
-1010.36
-1084.58
-1150.51
-1208.77
-1259.62
-1302.88
-1338.31
-1365.54
-1384.12
-1393.59
-1393.49
-1383.28
-1362.51
-1330.79
-1287.55
-1232.47
-1165.64
-1087.32
-997.81
-897.501
-786.82
-665.839
-534.506
-391.13
-236.678
-63.1675
98.9093
314.092
380.139
448.267
512.545
568.907
620.404
664.535
700.367
728.211
747.746
758.988
761.936
756.534
742.713
720.403
689.708
650.883
604.495
551.447
493.03
430.908
367.078
303.649
242.639
185.47
132.887
85.6766
44.8524
11.4048
-13.841
-30.2831
-37.5376
-35.1068
-22.6066
0.421088
35.3744
82.9951
148.723
219
246.255
174.723
89.869
-9.07214
-114.103
-227.994
-348.362
-467.293
-579.857
-685.391
-782.326
-869.298
-947.346
-1017.39
-1079.96
-1135.74
-1185.08
-1227.86
-1263.83
-1292.57
-1313.55
-1326.14
-1329.71
-1323.53
-1307.05
-1279.82
-1241.3
-1191.09
-1129.18
-1055.71
-970.943
-875.193
-768.843
-651.994
-524.667
-385.482
-235.613
-68.8328
86.4088
293.872
355.801
419.739
480.02
532.865
581.186
622.638
656.397
682.812
701.601
712.83
716.543
712.706
701.262
682.139
655.384
621.166
579.914
532.343
479.524
422.876
364.159
305.277
248.111
194.016
143.718
98.048
58.1005
24.9332
-0.557484
-17.6709
-25.932
-24.7725
-13.7413
7.63079
40.6026
85.7411
147.366
212.486
230.231
163.19
83.6066
-9.25928
-107.782
-214.67
-327.697
-439.368
-545.011
-644.052
-735.023
-816.647
-889.968
-955.923
-1015.08
-1068.17
-1115.61
-1157.37
-1193.24
-1222.78
-1245.43
-1260.45
-1267.1
-1264.49
-1251.92
-1228.89
-1194.82
-1149.29
-1092.15
-1023.48
-943.431
-852.274
-750.34
-637.747
-514.586
-379.784
-234.694
-74.7299
73.7466
274.545
332.706
392.796
449.414
499.03
544.435
583.414
615.251
640.311
658.353
669.484
673.788
671.25
661.836
645.471
622.173
592.043
555.402
512.815
465.165
413.655
359.828
305.391
252.083
201.174
153.343
109.429
70.5768
37.8979
12.3494
-5.28205
-14.4314
-14.4694
-4.87504
14.8307
45.7699
88.3457
145.856
205.968
214.756
151.826
77.0731
-10.2146
-102.765
-203.206
-309.471
-414.436
-513.676
-606.691
-692.104
-768.696
-837.506
-899.497
-955.245
-1005.54
-1050.84
-1091.19
-1126.45
-1156.21
-1179.89
-1196.73
-1205.88
-1206.36
-1197.32
-1178.14
-1148.26
-1107.18
-1054.67
-990.693
-915.333
-828.788
-731.337
-623.115
-504.273
-374.031
-233.905
-80.8046
60.9881
256.146
310.838
367.383
420.632
467.28
509.995
546.696
576.745
600.524
617.831
628.805
633.557
632.101
624.416
610.439
590.171
563.662
531.153
493.087
450.189
403.471
354.282
304.148
254.661
206.994
161.766
119.79
82.2305
50.2379
24.8153
6.82258
-3.09079
-4.24376
3.95431
21.9915
50.8583
90.807
144.217
199.486
199.895
140.744
70.4363
-11.7095
-98.7588
-193.258
-293.267
-392.031
-485.336
-572.741
-652.958
-724.83
-789.376
-847.554
-899.96
-947.409
-990.416
-1029.07
-1063.34
-1092.85
-1117.04
-1135.14
-1146.27
-1149.36
-1143.43
-1127.77
-1101.78
-1064.91
-1016.85
-957.447
-886.716
-804.781
-711.868
-608.117
-493.737
-368.221
-233.225
-86.999
48.2038
238.678
290.171
343.44
393.581
437.492
477.724
512.32
540.704
563.273
579.864
590.635
595.726
595.166
588.96
577.056
559.44
536.139
507.326
473.347
434.794
392.523
347.706
301.701
255.956
211.543
169.006
129.115
93.0222
61.8984
36.7795
18.5818
8.03297
5.85562
12.7062
29.0822
55.8492
93.1229
142.476
193.076
185.694
130.027
63.8242
-13.5682
-95.532
-184.535
-278.748
-371.746
-459.537
-541.718
-617.083
-684.523
-745.038
-799.573
-848.733
-893.355
-933.984
-970.78
-1003.77
-1032.65
-1056.9
-1075.78
-1088.41
-1093.66
-1090.43
-1077.94
-1055.53
-1022.62
-978.8
-923.836
-857.655
-780.311
-691.971
-592.778
-482.987
-362.346
-232.63
-93.2573
35.468
222.134
270.673
320.905
368.176
409.56
447.487
480.137
506.971
528.404
544.297
554.833
560.17
560.358
555.418
545.311
530.023
509.559
484.044
453.751
419.161
380.998
340.277
298.201
256.083
214.892
175.097
137.399
102.922
72.8309
48.1837
29.9363
18.8826
15.7771
21.3383
36.0707
60.7243
95.2935
140.656
186.771
172.18
119.73
57.3261
-15.6545
-92.9078
-176.81
-265.63
-353.264
-435.908
-513.22
-584.043
-647.325
-704.043
-755.123
-801.157
-843.001
-881.233
-916.062
-947.566
-975.535
-999.492
-1018.75
-1032.43
-1039.41
-1038.49
-1028.82
-1009.67
-980.447
-940.648
-889.963
-828.234
-755.437
-671.689
-577.124
-472.035
-356.399
-232.087
-99.5186
22.8496
206.503
252.303
299.717
344.326
383.369
419.162
450.004
475.395
495.759
510.983
521.262
526.773
527.579
523.723
515.179
501.934
483.979
461.408
434.432
403.448
369.061
332.157
293.794
255.16
217.127
180.081
144.652
111.909
82.9961
58.9752
40.8294
29.4003
25.4694
29.8065
42.9239
65.4647
97.32
138.784
180.607
159.359
109.896
51.0179
-17.8652
-90.7414
-169.892
-253.686
-336.31
-414.16
-486.918
-553.487
-612.866
-666.007
-713.808
-756.858
-796.013
-831.865
-864.671
-894.566
-921.404
-944.783
-964.065
-978.43
-986.738
-987.756
-980.543
-964.348
-938.527
-902.523
-855.937
-798.538
-730.233
-651.072
-561.183
-460.892
-350.371
-231.564
-105.722
10.4227
191.765
235.016
279.811
321.947
358.814
392.628
421.787
445.833
465.195
479.777
489.786
495.412
496.733
493.809
486.624
475.172
459.439
439.493
415.5
387.786
356.862
323.492
288.62
253.309
218.339
184.019
150.896
119.976
92.3647
69.1106
51.2063
39.5313
34.8809
38.0673
49.6084
70.0532
99.2039
136.881
174.615
147.236
100.546
44.9499
-20.1118
-88.9095
-163.626
-242.728
-320.675
-394.037
-462.527
-525.108
-580.827
-630.6
-675.298
-715.505
-752.074
-785.601
-816.38
-844.586
-870.144
-892.73
-911.762
-926.474
-935.758
-938.354
-933.263
-919.705
-897.001
-864.547
-821.873
-768.664
-704.766
-630.174
-544.994
-449.569
-344.252
-231.025
-111.808
-1.7425
177.893
218.769
261.126
300.959
335.802
367.775
395.369
418.16
436.58
450.548
460.28
465.973
467.721
465.597
459.598
449.723
435.958
418.352
397.039
372.284
344.523
314.42
282.807
250.643
218.617
186.968
156.159
127.125
100.915
78.5499
61.0182
49.2212
43.9601
46.0755
56.0909
74.4702
100.948
134.972
168.824
135.801
91.695
39.1591
-22.3314
-87.3208
-157.894
-232.598
-306.164
-375.321
-439.81
-498.647
-550.927
-597.535
-639.311
-676.824
-710.914
-742.19
-770.962
-797.452
-821.633
-843.261
-861.818
-876.6
-886.548
-890.396
-887.104
-875.878
-856.009
-826.854
-787.88
-738.711
-679.12
-609.05
-528.586
-438.082
-338.028
-230.432
-117.717
-13.5759
164.856
203.518
243.594
281.282
314.239
344.497
370.633
392.253
409.787
423.168
432.621
438.348
440.45
439.015
434.051
425.563
413.54
398.024
379.113
357.034
332.155
305.059
276.478
247.271
218.055
188.996
160.484
133.367
108.634
87.2621
70.2221
58.4214
52.6577
53.7884
62.3369
78.6989
102.555
133.072
163.258
125.041
83.3472
33.6734
-24.4793
-85.9017
-152.596
-223.175
-292.626
-357.836
-418.568
-473.886
-522.933
-566.561
-605.582
-640.552
-672.287
-701.395
-728.212
-752.983
-775.741
-796.289
-814.198
-828.827
-839.168
-843.97
-842.179
-832.989
-815.677
-789.568
-754.081
-708.779
-653.377
-587.764
-512
-426.444
-331.688
-229.742
-123.394
-25.0109
152.623
189.213
227.16
262.841
294.039
322.696
347.472
368
384.701
397.526
406.699
412.43
414.825
413.984
409.925
402.659
392.183
378.527
361.775
342.112
319.855
295.514
269.74
243.302
216.744
190.178
163.916
138.725
115.518
95.2238
78.7804
67.0855
60.9266
61.1622
68.315
82.7214
104.025
131.2
157.938
114.94
75.5018
28.5061
-26.5146
-84.5944
-147.648
-214.35
-279.933
-341.431
-398.628
-450.64
-496.647
-537.474
-573.898
-606.466
-635.97
-663.014
-687.941
-711.025
-732.334
-751.73
-768.863
-783.152
-793.654
-799.15
-798.584
-791.152
-776.124
-752.808
-720.586
-678.972
-627.622
-566.379
-495.28
-414.668
-325.223
-228.921
-128.778
-35.9835
141.16
175.81
211.762
245.565
275.121
302.284
325.788
345.292
361.212
373.508
382.403
388.116
390.755
390.426
387.16
380.976
371.872
359.876
345.057
327.574
307.699
285.878
262.691
238.83
214.773
190.584
166.507
143.224
121.572
102.42
86.6615
75.1733
68.724
68.157
73.9936
86.5214
105.363
129.369
152.88
105.475
68.1515
23.6681
-28.4101
-83.3513
-142.982
-206.037
-267.974
-325.977
-379.848
-428.745
-471.894
-510.089
-544.075
-574.376
-601.773
-626.851
-649.967
-671.407
-691.277
-709.485
-725.745
-739.549
-750.021
-755.983
-756.395
-750.461
-737.463
-716.694
-687.511
-649.387
-601.942
-544.965
-478.465
-402.776
-318.618
-227.921
-133.822
-46.4349
130.435
163.265
197.343
229.389
257.407
283.17
305.486
324.031
339.217
351.011
359.635
365.311
368.15
368.265
365.695
360.466
352.582
342.067
328.983
313.464
295.748
276.229
255.42
233.945
212.227
190.289
168.314
146.902
126.811
108.844
93.8443
82.6513
76.0105
74.7359
79.3435
90.0829
106.567
127.591
148.097
96.625
61.2864
19.1627
-30.1489
-82.1381
-138.544
-198.164
-256.662
-311.371
-362.104
-408.066
-448.525
-484.24
-515.936
-544.111
-569.521
-592.742
-614.127
-633.984
-652.442
-669.449
-684.773
-697.986
-708.273
-714.505
-715.675
-711.003
-699.79
-681.327
-654.959
-620.131
-576.421
-523.588
-461.602
-390.781
-311.864
-226.711
-138.475
-56.3135
120.413
151.533
183.853
214.247
240.824
265.278
286.479
304.126
318.622
329.94
338.301
343.924
346.928
347.426
345.467
341.085
334.286
325.094
313.565
299.817
284.056
266.631
248.003
228.73
209.187
189.366
169.394
149.797
131.254
114.498
100.312
89.4916
82.7519
80.8646
84.338
93.3904
107.638
125.872
143.594
88.3655
54.8916
14.9896
-31.7168
-80.9246
-134.292
-190.666
-245.924
-297.522
-345.295
-388.487
-426.412
-459.796
-489.335
-515.514
-539.058
-560.529
-580.278
-598.619
-615.705
-631.52
-645.877
-658.42
-668.398
-674.738
-676.471
-672.85
-663.193
-646.807
-623.032
-591.295
-551.148
-502.314
-444.739
-378.704
-304.952
-225.253
-142.694
-65.5713
111.059
140.571
171.236
200.081
225.305
248.53
268.687
285.492
299.339
310.205
318.309
323.87
327.007
327.837
326.416
322.784
316.951
308.943
298.81
286.656
272.662
257.142
240.504
223.255
205.726
187.882
169.808
151.955
134.929
119.39
106.058
95.6747
88.9199
86.5145
88.953
96.4298
108.576
124.215
139.373
80.6721
48.9526
11.1421
-33.105
-79.6908
-130.189
-183.498
-235.694
-284.352
-329.33
-369.91
-405.447
-436.639
-464.153
-488.457
-510.25
-530.074
-548.28
-565.182
-580.948
-595.594
-608.973
-620.792
-630.367
-636.683
-638.815
-636.055
-627.748
-613.222
-591.824
-562.974
-526.205
-481.213
-427.918
-366.567
-297.877
-223.513
-146.438
-74.1659
102.34
130.337
159.444
186.831
210.784
232.856
252.032
268.045
281.281
291.719
299.575
305.065
308.31
309.428
308.482
305.514
300.542
293.594
284.712
273.993
261.597
247.803
232.98
217.585
201.911
185.905
169.613
153.424
137.868
123.535
111.081
101.188
94.4929
91.6611
93.1675
99.1889
109.377
122.622
135.43
73.5179
43.4521
7.61462
-34.3116
-78.4212
-126.209
-176.622
-225.916
-271.799
-314.137
-352.25
-385.535
-414.664
-440.278
-462.823
-482.975
-501.257
-518.009
-533.552
-548.061
-561.575
-573.985
-585.049
-594.149
-600.333
-602.724
-600.659
-593.517
-580.649
-561.42
-535.251
-501.67
-460.352
-411.188
-354.39
-290.634
-221.468
-149.676
-82.0643
94.2233
120.792
148.43
174.443
197.2
218.189
236.442
251.712
264.37
274.403
282.019
287.432
290.762
292.13
291.602
289.226
285.022
279.02
271.262
261.833
250.881
238.652
225.479
211.776
197.804
183.497
168.869
154.251
140.106
126.956
115.389
106.026
99.4559
96.2856
96.9646
101.655
110.039
121.089
131.757
66.8774
38.3713
4.39709
-35.3359
-77.1049
-122.33
-169.999
-216.551
-259.806
-299.646
-335.429
-366.592
-393.778
-417.607
-438.507
-457.125
-473.962
-489.356
-503.618
-516.935
-529.362
-540.824
-551.12
-559.7
-565.671
-568.208
-566.692
-560.545
-549.149
-531.891
-508.206
-477.618
-439.792
-394.593
-342.197
-283.228
-219.096
-152.379
-89.2432
86.6753
111.896
138.148
162.866
184.496
204.465
221.851
236.421
248.536
258.183
265.567
270.899
274.295
275.879
275.721
273.87
270.351
265.196
258.446
250.18
240.527
229.714
218.039
205.877
193.46
180.714
167.63
154.487
141.685
129.681
118.996
110.19
103.801
100.375
100.331
103.82
110.556
119.611
128.342
60.7246
33.692
1.47829
-36.1793
-75.734
-118.533
-163.604
-207.558
-248.327
-285.802
-319.385
-348.546
-373.908
-396.062
-415.422
-432.605
-448.094
-462.219
-475.281
-487.474
-498.868
-509.413
-518.944
-526.972
-532.67
-535.26
-534.172
-528.869
-518.774
-503.302
-481.906
-454.117
-419.593
-378.181
-330.014
-275.656
-216.381
-154.528
-95.6811
79.6662
103.613
128.555
152.052
172.618
191.627
208.196
222.105
233.707
242.987
250.149
255.394
258.841
260.612
260.78
259.396
256.488
252.092
246.247
239.025
230.545
221.01
210.692
199.927
188.927
177.61
165.951
154.181
142.645
131.74
121.923
113.69
107.527
103.921
103.257
105.676
110.924
118.179
125.168
55.034
29.3938
-1.15401
-36.8474
-74.3059
-114.807
-157.417
-198.907
-237.322
-272.562
-304.066
-331.34
-354.984
-375.567
-393.487
-409.331
-423.565
-436.506
-448.448
-459.588
-470.003
-479.669
-488.451
-495.915
-501.292
-503.864
-503.102
-498.514
-489.567
-475.707
-456.41
-431.226
-399.809
-361.991
-317.866
-267.929
-213.312
-156.111
-101.368
73.1651
95.9067
119.612
141.953
161.517
179.619
195.417
208.704
219.819
228.752
235.697
240.855
244.338
246.269
246.724
245.755
243.394
239.678
234.644
228.361
220.936
212.555
203.462
193.963
184.248
174.233
163.881
153.382
143.031
133.169
124.194
116.541
110.641
106.924
105.739
107.216
111.136
116.782
122.216
49.7804
25.4578
-3.51336
-37.3453
-72.818
-111.141
-151.416
-190.574
-226.758
-259.882
-289.421
-314.916
-336.948
-356.057
-372.629
-387.227
-400.292
-412.133
-423.034
-433.189
-442.686
-451.517
-459.572
-466.472
-471.501
-473.995
-473.476
-469.493
-461.554
-449.143
-431.77
-408.999
-380.49
-346.065
-305.78
-260.057
-209.888
-157.119
-106.299
67.1423
88.7435
111.277
132.527
151.143
168.388
183.459
196.157
206.812
215.415
222.151
227.219
230.726
232.795
233.502
232.902
231.029
227.92
223.614
218.174
211.7
204.357
196.369
188.013
179.459
170.627
161.467
152.137
142.888
134.008
125.841
118.763
113.155
109.388
107.776
108.437
111.186
115.407
119.465
44.9399
21.8639
-5.61233
-37.6801
-71.2705
-107.528
-145.589
-182.535
-216.606
-247.728
-275.41
-299.229
-319.743
-337.473
-352.787
-366.224
-378.205
-389.024
-398.959
-408.198
-416.838
-424.881
-432.24
-438.583
-443.249
-445.626
-445.28
-441.805
-434.752
-423.643
-408.024
-387.479
-361.68
-330.441
-293.783
-252.056
-206.112
-157.557
-110.479
61.5697
82.0914
103.515
123.731
141.451
157.886
172.269
184.41
194.63
202.918
209.453
214.427
217.948
220.134
221.063
220.79
219.353
216.787
213.133
208.45
202.828
196.42
189.427
182.1
174.593
166.829
158.752
150.492
142.259
134.296
126.897
120.384
115.086
111.324
109.373
109.339
111.069
114.042
116.89
40.4876
18.5935
-7.46648
-37.8599
-69.6654
-103.964
-139.925
-174.772
-206.841
-236.07
-261.998
-284.237
-303.326
-319.763
-333.904
-346.261
-357.236
-367.111
-376.152
-384.543
-392.383
-399.687
-406.389
-412.191
-416.488
-418.719
-418.492
-415.444
-409.168
-399.228
-385.202
-366.704
-343.418
-315.153
-281.901
-243.943
-201.996
-157.431
-113.918
56.4206
75.9184
96.2899
115.527
132.399
148.067
161.799
173.413
183.219
191.205
197.545
202.426
205.95
208.236
209.358
209.376
208.326
206.247
203.176
199.171
194.315
188.746
182.646
176.243
169.677
162.875
155.778
148.49
141.188
134.076
127.4
121.433
116.458
112.746
110.536
109.923
110.779
112.67
114.466
36.4009
15.6267
-9.08943
-37.8946
-68.0061
-100.446
-134.413
-167.27
-197.444
-224.881
-249.152
-269.905
-287.654
-302.883
-315.93
-327.284
-337.327
-346.329
-354.544
-362.153
-369.253
-375.87
-381.952
-387.235
-391.166
-393.232
-393.083
-390.394
-384.8
-375.906
-363.325
-346.701
-325.735
-300.234
-270.164
-235.739
-197.553
-156.757
-116.634
51.6686
70.1954
89.5689
107.877
123.946
138.887
152.002
163.116
172.528
180.228
186.379
191.165
194.683
197.051
198.343
198.616
197.911
196.266
193.718
190.32
186.15
181.332
176.033
170.458
164.735
158.796
152.58
146.173
139.72
133.39
127.388
121.946
117.299
113.676
111.279
110.193
110.313
111.278
112.169
32.6567
12.9458
-10.496
-37.7925
-66.2967
-96.9714
-129.048
-160.018
-188.397
-214.139
-236.846
-256.199
-272.692
-286.79
-298.819
-309.242
-318.423
-326.621
-334.078
-340.965
-347.382
-353.362
-358.863
-363.655
-367.23
-369.121
-369.018
-366.631
-361.635
-353.677
-342.404
-327.49
-308.656
-285.71
-258.596
-227.469
-192.805
-155.556
-118.648
47.2889
64.8938
83.3199
100.747
116.054
130.306
142.834
153.474
162.512
169.936
175.905
180.594
184.099
186.533
187.972
188.472
188.073
186.814
184.732
181.877
178.32
174.175
169.593
164.758
159.787
154.619
149.193
143.578
137.894
132.279
126.904
121.958
117.639
114.136
111.618
110.156
109.665
109.852
109.974
29.234
10.5316
-11.6991
-37.5637
-64.5416
-93.5413
-123.823
-153.004
-179.682
-203.822
-225.055
-243.09
-258.407
-271.448
-282.529
-292.089
-300.476
-307.933
-314.692
-320.917
-326.706
-332.098
-337.061
-341.39
-344.625
-346.338
-346.256
-344.125
-339.656
-332.533
-322.441
-309.083
-292.2
-271.604
-247.223
-219.157
-187.779
-153.855
-119.989
43.2575
59.9872
77.5127
94.104
108.687
122.284
134.257
144.445
153.125
160.285
166.076
170.668
174.153
176.64
178.205
178.904
178.776
177.861
176.194
173.823
170.814
167.269
163.325
159.15
154.849
150.368
145.648
140.743
135.752
130.787
125.988
121.51
117.514
114.154
111.571
109.821
108.836
108.377
107.856
26.1119
8.36696
-12.7136
-37.2178
-62.7469
-90.1566
-118.735
-146.218
-171.287
-193.913
-213.756
-230.553
-244.767
-256.822
-267.022
-275.785
-283.438
-290.215
-296.334
-301.953
-307.168
-312.018
-316.484
-320.382
-323.293
-324.831
-324.754
-322.84
-318.835
-312.459
-303.431
-291.484
-276.379
-257.937
-236.07
-210.833
-182.503
-151.686
-120.69
39.5517
55.4496
72.1195
87.9158
101.811
114.787
126.231
135.988
144.327
151.233
156.851
161.345
164.803
167.331
169.003
169.875
169.986
169.376
168.078
166.138
163.617
160.607
157.232
153.643
149.937
146.065
141.972
137.702
133.332
128.955
124.682
120.64
116.958
113.761
111.159
109.2
107.826
106.842
105.792
23.27
6.43505
-13.5532
-36.7643
-60.917
-86.8168
-113.779
-139.655
-163.2
-184.396
-202.929
-218.563
-231.745
-242.881
-252.263
-260.288
-267.266
-273.419
-278.952
-284.018
-288.708
-293.064
-297.075
-300.573
-303.181
-304.549
-304.465
-302.738
-299.143
-293.434
-285.363
-274.692
-261.201
-244.723
-225.158
-202.522
-177.01
-149.085
-120.789
36.15
51.2571
67.1131
82.1535
95.3958
107.779
118.719
128.067
136.079
142.74
148.19
152.584
156.009
158.566
160.329
161.351
161.673
161.331
160.361
158.803
156.716
154.181
151.311
148.242
145.061
141.728
138.192
134.484
130.67
126.821
123.027
119.389
116.01
112.987
110.408
108.307
106.637