/*--------------------------------*- C++ -*----------------------------------*\
| =========                 |                                                 |
| \\      /  F ield         | OpenFOAM: The Open Source CFD Toolbox           |
|  \\    /   O peration     | Version:  v1806                                 |
|   \\  /    A nd           | Web:      www.OpenFOAM.com                      |
|    \\/     M anipulation  |                                                 |
\*---------------------------------------------------------------------------*/
FoamFile
{
    version     2.0;
    format      ascii;
    class       volScalarField;
    location    "246";
    object      p;
}
// * * * * * * * * * * * * * * * * * * * * * * * * * * * * * * * * * * * * * //

dimensions      [0 2 -2 0 0 0 0];


internalField   nonuniform List<scalar> 
10720
(
1879.95
1808.26
1682.47
1507.81
1288.75
1023.87
734.088
432.228
123.473
-175.28
-459.916
-726.51
-971.293
-1192.96
-1389.52
-1557.49
-1698.39
-1806
-1882.49
-1921.6
-1927.01
-1893.8
-1828.77
-1734.34
-1626.2
-1529.06
-1440.57
-1345.81
-1244.39
-1138.07
-1026.75
-910.447
-789.201
-662.543
-529.621
-385.967
-226.967
-22.8613
236.225
1908.01
1905.15
1861.43
1753.58
1578.54
1340.36
1054.04
751.687
468.629
218.257
17.0698
-129.081
-235.273
-311.148
-362.064
-402.514
-435.162
-465.894
-497.001
-532.82
-572.087
-616.6
-664.099
-710.032
-737.616
-739.967
-728.173
-706.117
-673.99
-631.577
-579.726
-519.351
-451.065
-374.659
-289.548
-192.242
-77.5307
79.3044
306.081
1784.54
1727.31
1633.28
1501.45
1333.21
1128.61
895.527
642.305
375.537
104.863
-162.972
-422.402
-668.438
-897.332
-1105.59
-1289.71
-1448.19
-1576.5
-1674.25
-1737.34
-1765.51
-1755.87
-1713.73
-1643.07
-1557.19
-1475.55
-1397.31
-1311.01
-1216.41
-1115.58
-1008.77
-896.183
-777.971
-653.765
-522.764
-380.578
-222.727
-19.3984
233.754
1811.44
1809.37
1770.49
1687.16
1557.72
1382.01
1167.93
933.299
698.108
476.544
281.078
118.594
-13.8718
-120.181
-203.813
-272.481
-329.868
-380.43
-427.293
-474.178
-521.48
-570.68
-620.335
-666.288
-695.933
-703.244
-696.256
-678.629
-650.591
-611.983
-563.574
-506.224
-440.512
-366.247
-282.842
-186.847
-73.1827
82.9527
303.334
1671.14
1624.64
1546.58
1435.04
1291
1112.79
905.009
674.604
427.686
171.793
-85.3245
-337.689
-579.809
-807.053
-1015.43
-1201.52
-1362.54
-1495.1
-1597.4
-1666.3
-1700.45
-1699.06
-1665.74
-1605.02
-1527.8
-1450.16
-1373.88
-1290.42
-1198.76
-1100.65
-996.384
-886.052
-769.784
-647.204
-517.498
-376.328
-219.301
-17.1815
230.043
1692.88
1691.73
1661.16
1594.33
1488.82
1342.24
1159.06
952.04
736.774
526.922
333.927
166.378
26.4291
-87.76
-179.134
-252.88
-313.739
-366.064
-413.524
-459.613
-505.703
-552.87
-600.042
-643.526
-673.439
-683.558
-679.002
-663.417
-637.266
-600.474
-553.755
-497.943
-433.589
-360.511
-278.079
-182.863
-69.8528
85.2265
298.938
1550.51
1511.48
1445.8
1352
1231.23
1080.57
903.343
704.361
487.684
259.236
25.2914
-208.816
-437.746
-656.731
-861.317
-1047.59
-1212.02
-1351.12
-1462.07
-1541.93
-1589.23
-1602.97
-1585.43
-1540.64
-1477.41
-1409.2
-1339.57
-1262.23
-1175.78
-1081.92
-981.242
-873.904
-760.113
-639.566
-511.483
-371.622
-215.73
-15.4556
225.615
1569.08
1568.8
1544.35
1489.91
1403.74
1283.19
1131.09
957.368
773.601
589.977
416.076
259.424
122.97
6.62192
-91.1185
-173.318
-243.483
-304.906
-360.599
-413.378
-464.737
-515.481
-564.792
-609.481
-641.705
-655.755
-654.875
-642.572
-619.469
-585.502
-541.314
-487.715
-425.25
-353.76
-272.616
-178.443
-66.374
87.0935
293.772
1433.59
1400.05
1343.5
1262.64
1158.81
1028.37
873.719
698.467
505.148
298.533
83.7134
-134.632
-351.37
-561.707
-761.058
-945.164
-1110.03
-1251.97
-1367.67
-1454.32
-1509.81
-1533.11
-1525.57
-1491.07
-1437.35
-1375.7
-1310.43
-1237.2
-1154.5
-1063.91
-966.173
-861.464
-749.976
-631.412
-504.989
-366.536
-211.978
-13.9443
220.46
1449.97
1450.54
1430.96
1386.15
1314.61
1213.47
1084.38
935.22
774.955
611.27
452.143
304.286
171.088
53.7948
-47.7162
-134.907
-210.168
-276.056
-335.173
-390.017
-442.284
-492.83
-541.124
-584.517
-616.85
-632.907
-634.417
-624.358
-603.433
-571.591
-529.404
-477.64
-416.82
-346.785
-266.881
-173.776
-62.7787
88.7509
288.011
1323.34
1293.77
1244.15
1173.38
1083.08
969.302
833.989
679.969
508.684
323.885
129.558
-70.5149
-271.78
-469.792
-660.187
-838.651
-1000.96
-1143.29
-1261.99
-1354.05
-1416.99
-1449.87
-1453.43
-1430.8
-1388.31
-1335.17
-1276.01
-1208.19
-1130.35
-1043.91
-949.734
-848.088
-739.194
-622.803
-498.173
-361.257
-208.21
-12.8267
214.535
1338.24
1339.62
1323.91
1286.62
1226.56
1140.88
1030.57
902.182
763.004
618.855
476.273
341.011
216.127
103.265
2.98883
-85.2962
-163.095
-232.224
-294.705
-352.534
-407.195
-459.4
-508.679
-552.719
-586.538
-605.51
-610.252
-603.189
-585.076
-555.902
-516.17
-466.605
-407.709
-339.336
-260.832
-168.932
-59.1741
90.0573
281.644
1221.09
1194.5
1150.24
1087.36
1007.71
907.249
787.612
651.144
498.489
332.659
156.722
-26.3709
-212.672
-398.235
-579.007
-750.742
-909.216
-1050.47
-1170.66
-1266.59
-1335.6
-1376.35
-1389.06
-1376.11
-1342.89
-1297.04
-1243.2
-1180.11
-1106.64
-1023.99
-933.159
-834.447
-728.099
-613.892
-491.108
-355.824
-204.449
-12.1068
207.95
1234.95
1237.07
1224.51
1193.25
1142.32
1068.97
973.752
862.223
740.493
613.012
485.125
361.728
245.371
137.733
39.7939
-48.4242
-127.668
-198.995
-263.829
-323.66
-379.715
-432.59
-481.918
-525.768
-560.156
-581.038
-588.203
-583.482
-567.653
-540.745
-503.18
-455.619
-398.53
-331.764
-254.653
-164.013
-55.6165
90.9788
274.788
1126.87
1102.55
1062.53
1005.96
934.886
845.327
738.728
617.119
480.663
331.753
172.8
6.03181
-165.273
-337.715
-507.64
-671.088
-823.955
-962.285
-1082.18
-1180.31
-1253.8
-1301.06
-1321.98
-1318.2
-1294.1
-1255.87
-1207.92
-1150
-1081.26
-1002.76
-915.536
-819.99
-716.383
-604.523
-483.733
-350.236
-200.715
-11.7725
200.829
1139.99
1142.77
1132.81
1106.44
1062.9
999.562
916.702
819.164
712.178
599.26
484.829
373.048
265.961
165.072
71.4723
-14.5288
-93.1555
-164.941
-230.802
-291.791
-348.828
-402.353
-452.014
-496.138
-531.42
-554.319
-564.089
-562.002
-548.753
-524.386
-489.234
-443.888
-388.782
-323.772
-248.193
-158.955
-52.0994
91.5208
267.537
1040.31
1017.78
981.167
929.743
865.669
785.1
689.364
580.291
457.705
323.579
179.797
27.9821
-129.16
-288.768
-447.667
-602.233
-748.592
-882.914
-1001.33
-1100.44
-1177.23
-1229.83
-1257.74
-1261.96
-1245.96
-1214.8
-1172.5
-1119.54
-1055.4
-980.986
-897.373
-805.025
-704.22
-594.792
-476.101
-344.532
-197.047
-11.8453
193.217
1052.87
1056.24
1048.46
1026.12
988.627
933.529
860.891
774.986
680.412
580.006
477.471
376.367
278.279
184.456
95.936
13.1341
-63.8567
-135.164
-201.294
-262.865
-320.471
-374.356
-424.155
-468.393
-504.311
-528.824
-540.823
-541.068
-530.133
-508.092
-475.205
-431.985
-378.827
-315.58
-241.577
-153.836
-48.6773
91.6592
259.92
960.858
939.767
905.953
858.793
800.528
727.47
640.88
542.466
431.841
310.664
180.413
42.2581
-101.581
-248.786
-396.633
-541.861
-680.951
-810.26
-926.035
-1024.86
-1103.67
-1160.36
-1194.12
-1205.42
-1196.86
-1172.51
-1135.9
-1087.97
-1028.51
-958.311
-878.431
-789.403
-691.521
-584.648
-468.188
-338.71
-193.465
-12.3435
185.136
972.97
976.857
970.914
951.944
919.463
871.22
807.136
731.012
646.959
557.333
465.287
373.916
284.421
197.774
114.893
36.184
-38.111
-107.875
-173.289
-234.644
-292.234
-346.119
-395.88
-440.193
-476.68
-502.626
-516.71
-519.264
-510.689
-491.048
-460.521
-419.533
-368.427
-307.046
-234.732
-148.624
-45.3455
91.398
251.953
887.902
868.01
836.544
792.962
739.582
672.881
594.071
504.765
404.471
294.614
176.366
50.5412
-81.0512
-216.531
-353.615
-489.466
-620.903
-744.549
-856.82
-954.39
-1034.16
-1093.88
-1132.41
-1149.81
-1147.87
-1129.83
-1098.72
-1055.73
-1000.89
-934.915
-858.816
-773.177
-678.311
-574.103
-460.002
-332.777
-189.986
-13.2669
176.604
899.656
903.981
899.589
883.464
855.197
812.716
755.853
688.019
612.931
532.596
449.755
367.126
285.608
205.925
128.852
54.7026
-16.2537
-83.7515
-147.758
-208.3
-265.424
-318.999
-368.548
-412.837
-449.758
-476.903
-492.83
-497.516
-491.161
-473.81
-445.575
-406.787
-357.74
-298.265
-227.709
-143.351
-42.1279
90.7419
243.666
820.86
801.989
772.527
732.006
682.786
621.518
549.389
467.938
376.613
276.673
169.069
54.3424
-66.0312
-190.56
-317.344
-443.934
-567.532
-685.054
-793.144
-888.6
-968.361
-1030.08
-1072.34
-1094.91
-1098.84
-1086.65
-1060.86
-1022.73
-972.484
-910.755
-838.501
-756.334
-664.582
-563.153
-451.545
-326.743
-186.622
-14.6124
167.649
832.316
837.016
833.939
820.226
795.533
757.944
707.229
646.476
579.078
506.79
432.021
357.193
282.99
209.933
138.632
69.2916
2.14568
-62.4932
-124.461
-183.603
-239.765
-292.662
-341.756
-385.862
-423.062
-451.182
-468.729
-475.402
-471.195
-456.103
-430.163
-393.614
-346.684
-289.189
-220.49
-138.018
-39.0319
89.7041
235.085
759.194
741.208
713.479
675.608
629.979
573.415
507.074
432.442
348.949
257.716
159.546
54.7735
-55.3917
-169.774
-286.825
-404.457
-520.231
-631.374
-734.795
-827.464
-906.41
-969.224
-1014.29
-1041.11
-1050.15
-1043.28
-1022.54
-989.124
-943.387
-885.891
-817.517
-738.886
-650.338
-551.801
-442.821
-320.617
-183.38
-16.364
158.305
770.383
775.402
773.439
761.785
740.149
706.75
661.311
606.65
545.894
480.597
412.912
345.031
277.479
210.608
144.885
80.3975
17.3152
-44.0557
-103.501
-160.766
-215.551
-267.445
-315.85
-359.604
-396.922
-425.805
-444.749
-453.235
-451.056
-438.134
-414.439
-380.114
-335.322
-279.859
-213.1
-132.643
-36.071
88.2941
226.245
702.41
685.207
658.998
623.449
580.956
528.505
467.22
398.556
321.935
238.381
148.586
52.7347
-48.1759
-153.219
-261.163
-370.245
-478.338
-583
-681.415
-770.756
-848.184
-911.291
-958.301
-988.515
-1001.92
-999.847
-983.844
-954.977
-913.648
-860.355
-795.884
-720.846
-635.586
-540.05
-433.837
-314.407
-180.274
-18.5023
148.608
713.348
718.629
717.62
707.734
688.726
658.939
618.068
568.684
513.695
454.499
393.049
331.347
269.803
208.648
148.226
88.5198
29.6143
-28.2287
-84.7951
-139.787
-192.817
-243.39
-290.852
-334.062
-371.315
-400.742
-420.853
-430.964
-430.694
-419.861
-398.369
-366.267
-323.642
-270.27
-205.543
-127.234
-33.2536
86.5346
217.177
650.06
633.557
608.703
575.214
535.493
486.665
429.839
366.432
295.879
219.132
136.793
48.9422
-43.5964
-140.104
-239.584
-340.567
-441.23
-539.434
-632.655
-718.285
-793.629
-856.33
-904.527
-937.326
-954.4
-956.554
-944.934
-920.405
-883.352
-834.2
-773.634
-702.232
-620.336
-527.908
-424.6
-308.122
-177.307
-21.0091
138.606
660.761
666.246
666.051
657.697
640.962
614.309
577.416
532.638
482.686
428.842
372.893
316.689
260.559
204.642
149.196
94.1041
39.3724
-14.8139
-68.2682
-120.688
-171.651
-220.612
-266.89
-309.357
-346.361
-376.12
-397.177
-408.718
-410.217
-401.374
-382.022
-352.119
-311.678
-260.446
-197.836
-121.805
-30.5893
84.4424
207.921
601.738
585.876
562.244
530.61
493.357
447.749
394.886
336.146
270.98
200.289
124.601
43.9274
-41.04
-129.746
-221.401
-314.78
-408.335
-500.207
-588.153
-669.793
-742.61
-804.319
-853.027
-887.672
-907.736
-913.571
-905.951
-885.517
-852.58
-807.485
-750.805
-683.069
-604.604
-515.386
-415.118
-301.77
-174.486
-23.8547
128.344
612.218
617.862
618.355
611.33
596.572
572.658
539.25
498.515
452.989
403.863
352.785
301.479
250.221
199.09
148.264
97.5592
46.9031
-3.591
-53.7946
-103.428
-152.074
-199.175
-244.041
-285.562
-322.118
-352.001
-373.78
-386.551
-389.669
-382.707
-365.424
-337.693
-299.446
-250.402
-189.993
-116.369
-28.0833
82.0449
198.516
557.096
541.827
519.307
489.355
454.316
411.598
362.279
307.706
247.351
182.066
112.335
38.1194
-40.0001
-121.593
-206.043
-292.329
-379.145
-464.885
-547.567
-625.044
-694.987
-755.22
-803.848
-839.683
-862.097
-871.069
-867.047
-850.431
-821.426
-780.278
-727.445
-663.388
-588.411
-502.498
-405.404
-295.359
-171.81
-27.009
117.868
567.356
573.121
574.199
568.329
555.301
533.789
503.453
466.285
424.669
379.72
332.971
286.041
239.169
192.391
145.834
99.2548
52.5211
5.67334
-41.2219
-87.9348
-134.078
-179.112
-222.364
-262.747
-298.67
-328.468
-350.751
-364.549
-369.125
-363.924
-348.628
-323.028
-286.975
-240.159
-182.032
-110.939
-25.7385
79.3692
189
515.816
501.099
479.605
451.184
418.154
378.047
331.923
281.089
225.053
164.623
100.246
31.8438
-40.0804
-115.203
-193.032
-272.726
-353.192
-433.042
-510.544
-583.772
-650.596
-708.957
-757.001
-793.45
-817.623
-829.208
-828.369
-815.273
-789.989
-752.655
-703.607
-643.226
-571.781
-489.262
-395.47
-288.896
-169.278
-30.4357
107.238
525.853
531.702
533.278
528.418
516.906
497.515
469.899
435.898
397.756
356.523
313.638
270.627
227.703
184.878
142.242
99.5159
56.5093
13.2042
-30.3946
-74.1211
-117.638
-160.445
-201.903
-240.967
-276.072
-305.59
-328.167
-342.79
-348.654
-345.083
-331.682
-308.162
-274.296
-229.741
-173.971
-105.525
-23.557
76.4486
179.423
477.607
463.414
442.871
415.863
384.665
346.933
303.702
256.25
204.11
148.056
88.5025
25.352
-40.9605
-110.184
-181.941
-255.531
-330.043
-404.288
-476.754
-545.725
-609.264
-665.444
-712.484
-749.047
-774.431
-788.133
-790.062
-780.168
-758.374
-724.697
-679.353
-622.629
-554.747
-475.699
-385.331
-282.389
-166.883
-34.0953
96.5078
487.421
493.323
495.326
491.345
481.169
463.66
438.464
407.289
372.249
334.34
294.916
255.423
216.061
176.826
137.782
98.6276
59.1326
19.225
-21.1455
-61.8784
-102.7
-143.167
-182.691
-220.273
-254.383
-283.433
-306.101
-321.35
-328.328
-326.249
-314.641
-293.139
-261.444
-219.175
-165.83
-100.141
-21.5354
73.3159
169.829
442.22
428.529
408.872
383.171
353.658
318.096
277.503
233.123
184.514
132.418
77.2328
18.838
-42.3766
-106.224
-172.417
-240.372
-309.327
-378.273
-445.886
-510.645
-570.807
-624.58
-670.268
-706.523
-732.626
-747.977
-752.265
-745.244
-726.69
-696.496
-654.752
-601.645
-537.343
-461.833
-375.002
-275.843
-164.618
-37.9456
85.7341
451.807
457.736
460.099
456.889
447.892
432.057
409.029
380.388
348.131
313.208
276.897
240.575
204.433
168.459
132.699
96.8395
60.6279
23.948
-13.3025
-51.0873
-89.1955
-127.249
-164.727
-200.689
-233.651
-262.056
-284.624
-300.306
-308.22
-307.489
-297.564
-278.01
-248.456
-208.491
-157.632
-94.7973
-19.6699
70.0079
160.264
409.426
396.214
377.39
352.908
324.951
291.386
253.211
211.635
166.239
117.743
66.5176
12.4413
-44.1432
-103.091
-164.182
-226.941
-290.725
-354.674
-417.64
-478.284
-535.034
-586.241
-630.302
-665.895
-692.288
-708.857
-715.109
-710.628
-695.05
-668.146
-629.878
-580.331
-519.611
-447.693
-364.502
-269.263
-162.468
-41.9394
74.979
418.786
424.715
427.379
424.845
416.896
402.558
381.477
355.118
325.369
293.139
259.641
226.183
192.957
159.945
127.185
94.3619
61.2045
27.5667
-6.70081
-41.618
-77.0361
-112.648
-148.001
-182.233
-213.909
-241.51
-263.8
-279.729
-288.401
-288.87
-280.511
-262.824
-235.375
-197.722
-149.399
-89.5045
-17.9526
66.5639
150.775
379.02
366.269
348.23
324.892
298.381
266.66
230.713
191.705
149.25
104.036
56.4187
6.27007
-46.0951
-100.57
-156.993
-214.959
-273.941
-333.204
-391.753
-448.409
-501.762
-550.301
-592.529
-627.164
-653.477
-670.874
-678.713
-676.442
-663.567
-639.745
-604.813
-558.752
-501.598
-433.311
-353.85
-262.652
-160.418
-46.0269
64.3059
388.149
394.058
396.97
395.03
388.016
375.023
355.697
331.402
303.925
274.136
243.187
212.327
181.747
151.432
121.414
91.3799
61.0515
30.2577
-1.18547
-33.3425
-66.1273
-99.3026
-132.492
-164.91
-195.182
-221.838
-243.684
-259.689
-268.943
-270.461
-263.545
-247.637
-222.247
-186.901
-141.156
-84.272
-16.3747
63.0214
141.413
350.815
338.51
321.217
298.956
273.79
243.783
209.895
173.254
133.495
91.287
46.9659
0.405356
-48.1089
-98.4969
-150.639
-204.195
-258.727
-313.61
-367.98
-420.8
-470.808
-516.627
-556.871
-590.316
-616.239
-634.107
-643.183
-642.799
-632.354
-611.394
-579.642
-536.974
-483.355
-418.724
-343.066
-256.014
-158.449
-50.1619
53.7732
359.712
365.584
368.699
367.28
361.102
349.319
331.584
309.164
283.752
256.184
227.556
199.061
170.889
143.03
115.516
88.0399
60.3229
32.1757
3.39072
-26.1346
-56.3696
-87.1456
-118.16
-148.708
-177.484
-203.072
-224.326
-240.247
-249.915
-252.33
-246.731
-232.506
-209.118
-176.067
-132.926
-79.1094
-14.9226
59.421
132.222
324.645
312.77
296.188
274.945
251.039
222.63
190.653
156.197
118.925
79.475
38.174
-5.10441
-50.0953
-96.7396
-144.953
-194.451
-244.866
-295.66
-346.089
-395.241
-441.992
-485.083
-523.242
-555.314
-580.594
-598.625
-608.616
-609.812
-601.526
-583.198
-554.455
-515.069
-464.938
-403.97
-332.171
-249.351
-156.537
-54.2908
43.4443
333.308
339.126
342.408
341.449
336.018
325.327
309.037
288.327
264.8
239.262
212.754
186.417
160.442
134.826
109.6
84.4692
59.1571
33.4647
7.16759
-19.869
-47.6598
-76.0978
-104.953
-133.601
-160.813
-185.235
-205.77
-221.457
-231.382
-234.546
-230.134
-217.492
-196.04
-165.259
-124.737
-74.0246
-13.5828
55.8019
123.249
300.355
288.899
272.998
252.717
229.996
203.083
172.886
140.457
105.481
68.5736
30.0487
-10.217
-51.9792
-95.1945
-139.8
-185.56
-232.165
-279.154
-325.883
-371.545
-415.146
-455.538
-491.553
-522.113
-546.549
-564.475
-575.09
-577.578
-571.181
-555.259
-529.34
-493.117
-446.407
-389.091
-321.191
-242.663
-154.66
-58.3629
33.3785
308.785
314.535
317.95
317.397
312.634
302.934
287.964
268.818
247.019
223.341
198.777
174.416
150.453
126.889
103.756
80.7723
57.6694
34.2443
10.2636
-14.4335
-39.9018
-66.0856
-92.82
-119.561
-145.166
-168.339
-188.048
-203.367
-213.403
-217.172
-213.817
-202.651
-183.065
-154.517
-116.613
-69.0257
-12.3394
52.2029
114.537
277.808
266.759
251.511
232.144
210.54
185.03
156.495
125.953
93.1062
58.5485
22.5804
-14.9142
-53.709
-93.7755
-135.065
-177.381
-220.463
-263.916
-307.176
-349.538
-390.11
-427.86
-461.71
-490.665
-514.102
-531.695
-542.677
-546.187
-541.419
-527.672
-504.396
-471.195
-427.824
-374.133
-310.145
-235.952
-152.789
-62.3268
23.6335
286.006
291.675
295.193
294.995
290.836
282.036
268.273
250.566
230.356
208.389
185.613
163.068
140.949
119.263
98.0464
77.0308
55.9559
34.622
12.7888
-9.72088
-32.9955
-57.0225
-81.6968
-106.552
-130.523
-152.391
-171.183
-186.022
-196.034
-200.269
-197.845
-188.046
-170.242
-143.881
-108.581
-64.1184
-11.1767
48.6612
106.127
256.879
246.226
231.603
213.107
192.559
168.369
141.392
112.609
81.7413
49.3616
15.7556
-19.1849
-55.2508
-92.4178
-130.659
-169.8
-209.625
-249.791
-289.809
-329.058
-366.738
-401.917
-433.613
-460.905
-483.224
-500.304
-511.431
-515.719
-512.335
-500.536
-479.708
-449.385
-409.254
-359.139
-299.064
-229.218
-150.898
-66.1394
14.2635
264.841
270.421
274.017
274.133
270.516
262.538
249.884
233.501
214.757
194.37
173.244
152.372
131.948
111.987
92.5267
73.3145
54.102
34.6907
14.8422
-5.6349
-26.849
-48.8278
-71.5191
-94.5224
-116.861
-137.388
-155.193
-169.452
-179.324
-183.897
-182.278
-173.736
-157.627
-133.393
-100.668
-59.3099
-10.0762
45.2092
98.0555
237.449
227.183
213.16
195.496
175.949
153.003
127.49
100.352
71.3287
40.9711
9.55286
-23.0302
-56.5765
-91.0753
-126.504
-162.717
-199.53
-236.648
-273.639
-309.958
-344.891
-377.591
-407.168
-432.769
-453.89
-470.31
-481.389
-486.239
-484.012
-473.942
-455.368
-427.764
-390.766
-344.159
-287.97
-222.462
-148.964
-69.7504
5.31621
245.178
250.659
254.313
254.703
251.578
244.351
232.716
217.557
200.17
181.246
161.647
142.32
123.459
105.085
87.2363
69.6768
52.1694
34.5238
16.5029
-2.08907
-21.3798
-41.4269
-62.2201
-83.4264
-104.149
-123.316
-140.085
-153.685
-163.314
-168.105
-167.172
-159.777
-145.27
-123.095
-92.8976
-54.6064
-9.02342
41.8831
90.3561
219.413
209.523
196.078
179.21
160.612
138.842
114.708
89.1113
61.8114
33.3355
3.94846
-26.4508
-57.672
-89.7051
-122.541
-156.052
-190.081
-224.37
-258.541
-292.109
-324.439
-354.766
-382.275
-406.192
-426.062
-441.711
-452.585
-457.802
-456.525
-447.977
-431.463
-406.416
-372.423
-329.244
-276.89
-215.684
-146.953
-73.1207
-3.16154
226.909
232.285
235.975
236.608
233.927
227.388
216.695
202.671
186.543
168.977
150.794
132.898
115.48
98.5668
82.1992
66.1559
50.2133
34.1867
17.847
0.995543
-16.5069
-34.7421
-53.7344
-73.2097
-92.3496
-110.161
-125.86
-138.739
-148.037
-152.941
-152.579
-146.223
-133.222
-113.027
-85.2972
-50.013
-7.99784
38.7087
83.0566
202.673
193.15
180.262
164.155
146.461
125.805
102.97
78.8215
53.1348
26.4157
-1.08416
-29.4577
-58.5256
-88.2825
-118.723
-149.738
-181.191
-212.856
-244.403
-275.398
-305.274
-333.335
-358.848
-381.098
-399.69
-414.495
-425.032
-430.452
-429.936
-422.713
-408.072
-385.415
-354.293
-314.438
-265.852
-208.885
-144.845
-76.2078
-11.1284
209.938
215.202
218.913
219.759
217.481
211.574
201.752
188.781
173.825
157.523
140.657
124.088
108.006
92.4412
77.4355
62.7835
48.2742
33.7323
18.9351
3.68596
-12.1607
-28.7041
-45.9985
-63.8204
-81.4251
-97.8948
-112.511
-124.623
-133.52
-138.442
-138.549
-133.124
-121.53
-103.227
-77.8893
-45.535
-6.98787
35.7128
76.1789
187.139
177.973
165.622
150.245
133.41
113.811
92.2032
69.4178
45.2437
20.1651
-5.57488
-32.0667
-59.1388
-86.7874
-115.014
-143.72
-172.79
-202.024
-231.129
-259.719
-287.285
-313.199
-336.792
-357.418
-374.729
-388.635
-398.735
-404.22
-404.299
-398.22
-385.271
-364.835
-336.44
-299.794
-254.882
-202.068
-142.617
-78.9804
-18.5527
194.174
199.322
203.038
204.072
202.159
196.833
187.819
175.829
161.965
146.843
131.204
115.87
101.026
86.7072
72.9555
59.5804
46.3845
33.201
19.8176
6.04144
-8.27735
-23.2495
-38.9522
-55.2055
-71.3327
-86.4911
-100.025
-111.342
-119.781
-124.642
-125.121
-120.526
-110.237
-93.7318
-70.6975
-41.178
-5.97851
32.9162
69.7407
172.727
163.908
152.076
137.399
121.384
102.788
82.3414
60.8397
38.0854
14.5433
-9.55599
-34.2954
-59.5139
-85.2081
-111.385
-137.956
-164.819
-191.799
-218.634
-244.981
-270.381
-294.266
-316.028
-335.08
-351.124
-364.105
-373.692
-379.127
-379.656
-374.555
-363.126
-344.745
-318.925
-285.357
-244.008
-195.239
-140.248
-81.4088
-25.4079
179.535
184.563
188.271
189.469
187.888
183.098
174.835
163.759
150.916
136.895
122.402
108.218
94.5244
81.3575
68.7621
56.5609
44.5687
32.6286
20.5381
8.11148
-4.80126
-18.3194
-32.5365
-47.3102
-62.0284
-75.9183
-88.3854
-98.8924
-106.834
-111.565
-112.33
-108.468
-99.3832
-84.5743
-63.7436
-36.9476
-4.95767
30.3368
63.7545
159.36
150.879
139.548
125.542
110.309
92.6672
73.3209
53.0311
31.6125
9.51084
-13.0554
-36.1623
-59.6574
-83.5399
-107.816
-132.409
-157.228
-182.119
-206.847
-231.103
-254.477
-276.452
-296.476
-314.02
-328.825
-340.873
-349.893
-355.183
-356.039
-351.769
-341.697
-325.206
-301.805
-271.172
-233.256
-188.399
-137.724
-83.4687
-31.6712
165.944
170.848
174.538
175.878
174.599
170.305
162.739
152.518
140.63
127.639
114.218
101.107
88.482
76.3831
64.8542
53.7316
42.8422
32.0391
21.1304
9.93848
-1.68459
-13.8625
-26.7001
-40.0861
-53.4684
-66.1415
-77.5685
-87.2664
-94.6826
-99.2303
-100.205
-96.9849
-89.0042
-75.7856
-57.047
-32.8495
-3.91848
27.9858
58.2259
146.966
138.814
127.966
114.605
100.119
83.3849
65.0819
45.9364
25.7767
5.02667
-16.1044
-37.6875
-59.5783
-81.7774
-104.293
-127.052
-149.979
-172.934
-195.705
-218.017
-239.497
-259.679
-278.061
-294.166
-307.775
-318.898
-327.317
-332.393
-333.47
-329.899
-321.032
-306.274
-285.132
-257.283
-222.653
-181.559
-135.029
-85.1422
-37.331
153.329
158.107
161.769
163.234
162.23
158.393
151.477
142.056
131.062
119.037
106.62
94.5095
82.88
71.7709
61.2271
51.0955
41.2167
31.4528
21.6231
11.5585
1.11589
-9.83092
-21.3933
-33.4857
-45.6111
-57.1259
-67.5486
-76.448
-83.324
-87.6465
-88.7668
-86.1045
-79.1295
-67.3917
-50.6256
-28.8913
-2.85402
25.8717
53.1543
135.478
127.646
117.265
104.524
90.7516
74.8817
57.5684
39.5057
20.5313
1.0517
-18.735
-38.8948
-59.2913
-79.9244
-100.803
-121.864
-143.036
-164.196
-185.153
-205.658
-225.374
-243.878
-260.717
-275.459
-287.92
-298.139
-305.941
-310.751
-311.963
-308.973
-301.175
-287.996
-268.955
-243.728
-212.225
-174.726
-132.16
-86.4199
-42.3795
141.623
146.274
149.9
151.472
150.719
147.305
140.996
132.324
122.169
111.05
99.572
88.3978
77.6949
67.5046
57.8697
48.6504
39.6976
30.8827
22.0371
13.0001
3.63429
-6.18437
-16.5716
-27.4636
-38.4129
-48.8343
-58.2971
-66.4185
-72.7513
-76.818
-78.0284
-75.8473
-69.7826
-59.4153
-44.4954
-25.0768
-1.76228
23.9975
48.5357
124.834
117.314
107.383
95.2373
82.1476
67.1014
50.7287
33.6903
15.8339
-2.45087
-20.9765
-39.8057
-58.8081
-77.9846
-97.344
-116.828
-136.374
-155.87
-175.144
-193.972
-212.047
-228.987
-244.38
-257.837
-269.207
-278.552
-285.735
-290.243
-291.52
-289.012
-282.156
-270.411
-253.313
-230.543
-201.996
-167.911
-129.113
-87.2947
-46.817
130.765
135.289
138.871
140.536
140.01
136.988
131.245
123.275
113.907
103.638
93.042
82.7428
72.9037
63.5656
54.7709
46.3904
38.2858
30.3373
22.3879
14.2864
5.90205
-2.88645
-12.1953
-21.9782
-31.8327
-41.2292
-49.7827
-57.1558
-62.9514
-66.7416
-67.9964
-66.2272
-60.9811
-51.8732
-38.6696
-21.4138
-0.641487
22.361
44.3601
114.977
107.76
98.2646
86.6897
74.2529
59.9917
44.5122
28.4434
11.6433
-5.51698
-22.8592
-40.4429
-58.1436
-75.9633
-93.9103
-111.932
-129.97
-147.924
-165.639
-182.912
-199.463
-214.945
-228.989
-241.243
-251.584
-260.093
-266.665
-270.848
-272.136
-270.026
-263.999
-253.549
-238.241
-217.76
-191.989
-161.126
-125.889
-87.7684
-50.6496
120.698
125.093
128.626
130.37
130.052
127.392
122.178
114.865
106.236
96.766
86.9964
77.5163
68.4821
59.9356
51.9172
44.3078
36.9797
29.822
22.6883
15.437
7.94472
0.0944876
-8.22826
-16.991
-25.8324
-34.2735
-41.9726
-48.6331
-53.9053
-57.4079
-58.671
-57.251
-52.7374
-44.7789
-33.1589
-17.9084
0.504449
20.9581
40.6131
105.853
98.9302
89.8545
78.8289
67.0164
53.5036
38.8728
23.7228
7.92118
-8.1801
-24.4119
-40.8292
-57.3145
-73.8692
-90.5032
-107.166
-123.806
-140.332
-156.603
-172.434
-187.574
-201.704
-214.492
-225.623
-234.998
-242.716
-248.695
-252.543
-253.801
-252.016
-246.716
-237.435
-223.765
-205.404
-182.227
-154.386
-122.496
-87.8468
-53.8888
111.368
115.635
119.112
120.922
120.794
118.47
113.75
107.053
99.1188
90.3978
81.4034
72.6897
64.4063
56.5943
49.2933
42.393
35.7755
29.3386
22.9461
16.4665
9.78329
2.78562
-4.63821
-12.4667
-20.3751
-27.9314
-34.8328
-40.8215
-45.5905
-48.8028
-50.0452
-48.9194
-45.0571
-38.1411
-27.9715
-14.5672
1.67057
19.7778
37.2757
97.4115
90.7741
82.1035
71.6057
60.3902
47.5915
33.7675
19.4886
4.62966
-10.4739
-25.6623
-40.9865
-56.3357
-71.7123
-87.1242
-102.525
-117.869
-133.073
-148.008
-162.504
-176.336
-189.214
-200.837
-210.926
-219.401
-226.374
-231.786
-235.297
-236.496
-234.976
-230.313
-222.083
-209.907
-193.5
-172.728
-147.705
-118.944
-87.543
-56.5534
102.725
106.863
110.281
112.146
112.19
110.178
105.918
99.7997
92.517
84.4997
76.232
68.2349
60.6512
53.5212
46.8827
40.6343
34.667
28.8863
23.1668
17.3861
11.4356
5.21088
-1.39628
-8.37184
-15.425
-22.1667
-28.3296
-33.6903
-37.9812
-40.907
-42.1066
-41.2273
-37.9408
-31.9636
-23.1129
-11.3963
2.84935
18.8077
34.3268
89.6057
83.2453
74.9654
64.9745
54.3302
42.2122
29.1558
15.7023
1.73469
-12.4285
-26.6357
-40.9359
-55.2236
-69.5009
-83.7762
-98.0061
-112.149
-126.127
-139.825
-153.089
-165.712
-177.433
-187.98
-197.103
-204.744
-211.021
-215.898
-219.078
-220.197
-218.894
-214.788
-207.499
-196.68
-182.063
-163.511
-141.1
-115.248
-86.8738
-58.6652
94.7213
98.7323
102.086
103.997
104.196
102.472
98.6428
93.0666
86.3955
79.0385
71.4522
64.1252
57.1932
50.6958
44.6688
39.0189
33.6459
28.4625
23.3532
18.2049
12.9167
7.39043
1.52335
-4.67669
-10.9493
-16.9449
-22.4285
-27.2066
-31.0484
-33.6965
-34.8379
-34.1631
-31.3829
-26.2457
-18.5863
-8.40083
4.03215
18.0322
31.7411
82.3917
76.2997
68.3966
58.8924
48.7942
37.3256
24.999
12.3277
-0.797023
-14.0736
-27.3592
-40.6993
-53.9942
-67.2464
-80.4634
-93.6057
-106.635
-119.48
-132.035
-144.16
-155.669
-166.321
-175.876
-184.109
-190.98
-196.613
-200.988
-203.849
-204.876
-203.748
-200.131
-193.683
-184.091
-171.107
-154.592
-134.586
-111.425
-85.8612
-60.2508
87.3142
91.1987
94.4861
96.4327
96.7728
95.3153
91.8867
86.8183
80.7209
73.9831
67.0352
60.3339
54.0088
48.0979
42.6349
37.5342
32.7038
28.0634
23.5065
18.9292
14.2381
9.34164
4.14345
-1.35398
-6.91726
-12.2329
-17.0949
-21.3371
-24.7609
-27.144
-28.217
-27.7109
-25.3732
-20.9829
-14.3915
-5.5861
5.20821
17.4324
29.492
75.7283
69.8965
62.3566
53.3194
43.7436
32.894
21.2614
9.33182
-2.99666
-15.4374
-27.8564
-40.296
-52.6628
-64.9585
-77.1912
-89.3237
-101.32
-113.117
-124.617
-135.692
-146.173
-155.843
-164.485
-171.901
-178.065
-183.104
-187.013
-189.572
-190.499
-189.515
-186.325
-180.628
-172.142
-160.639
-145.981
-128.182
-107.497
-84.5303
-61.342
80.4624
84.2216
87.4392
89.4134
89.8805
88.6689
85.6145
81.021
75.4613
69.3038
62.953
56.8357
51.0748
45.707
40.7639
36.167
31.8316
27.6841
23.6266
19.564
15.4105
11.0808
6.48494
1.62203
-3.29921
-7.99821
-12.2949
-16.0474
-19.0858
-21.2195
-22.2182
-21.8501
-19.897
-16.1665
-10.5263
-2.95607
6.36626
16.9889
27.551
69.5773
63.9972
56.8075
48.2183
39.1422
28.8825
17.9093
6.68268
-4.89249
-16.5453
-28.1494
-39.7452
-51.2439
-62.648
-73.9646
-85.1596
-96.2002
-107.028
-117.553
-127.661
-137.196
-145.964
-153.769
-160.438
-165.954
-170.45
-173.93
-176.206
-177.032
-176.166
-173.351
-168.322
-160.828
-150.663
-137.692
-121.903
-103.484
-82.9099
-61.9717
74.1275
77.7628
80.9084
82.9022
83.4835
82.4986
79.7924
75.6431
70.5864
64.9722
59.1794
53.6066
48.3698
43.5043
39.0397
34.904
31.0197
27.319
23.7127
20.1133
16.4424
12.6215
8.56685
4.27509
-0.0673122
-4.20967
-7.99502
-11.3031
-13.989
-15.8906
-16.8124
-16.5565
-14.9359
-11.7847
-6.98594
-0.513797
7.49475
16.6805
25.8883
63.9028
58.5663
51.7136
43.5543
34.9554
25.2582
14.9119
4.3516
-6.51199
-17.4223
-28.2608
-39.0649
-49.7525
-60.3248
-70.7894
-81.1142
-91.2697
-101.202
-110.829
-120.046
-128.713
-136.654
-143.694
-149.681
-154.608
-158.607
-161.695
-163.709
-164.437
-163.669
-161.182
-156.746
-150.14
-141.178
-129.73
-115.765
-99.4108
-81.0306
-62.1761
68.2736
71.7867
74.8582
76.8641
77.5476
76.7714
74.389
70.6543
66.068
60.9612
55.6894
50.6234
45.873
41.4715
37.4467
33.7328
30.2588
26.9628
23.763
20.5798
17.3415
13.976
10.4062
6.62692
2.8045
-0.837571
-4.16281
-7.06976
-9.43586
-11.1237
-11.9686
-11.8031
-10.4684
-7.82269
-3.76339
1.73917
8.58226
16.4856
24.4742
58.671
53.5702
47.0419
39.2946