/*--------------------------------*- C++ -*----------------------------------*\
| =========                 |                                                 |
| \\      /  F ield         | OpenFOAM: The Open Source CFD Toolbox           |
|  \\    /   O peration     | Version:  v1806                                 |
|   \\  /    A nd           | Web:      www.OpenFOAM.com                      |
|    \\/     M anipulation  |                                                 |
\*---------------------------------------------------------------------------*/
FoamFile
{
    version     2.0;
    format      ascii;
    class       volScalarField;
    location    "260";
    object      p;
}
// * * * * * * * * * * * * * * * * * * * * * * * * * * * * * * * * * * * * * //

dimensions      [0 2 -2 0 0 0 0];


internalField   nonuniform List<scalar> 
10720
(
1769.08
1638.85
1454.39
1225.2
958.401
650.704
328.561
4.8836
-317.875
-622.145
-905.598
-1165.8
-1400.04
-1607.94
-1788.23
-1937.75
-2058.78
-2144.95
-2199.03
-2215.76
-2198.84
-2142.28
-2053.86
-1936.65
-1807.23
-1691.24
-1585.91
-1475.46
-1359.37
-1239.35
-1115.18
-986.782
-854.119
-716.63
-573.365
-419.641
-250.805
-36.4712
230.062
1858.31
1902.62
1909.6
1873.94
1769.52
1592.68
1358.86
1094.9
831.881
586.983
379.426
218.124
92.8598
-3.51322
-75.264
-135.167
-185.846
-232.925
-278.808
-327.804
-379.058
-434.486
-492.182
-548.004
-586.183
-599.723
-599.092
-588.116
-566.898
-535.155
-493.675
-443.349
-384.797
-317.856
-242.01
-153.926
-48.5613
98.3404
315.122
1697.74
1599.93
1464.96
1292.53
1086.01
846.364
583.339
305.998
20.7955
-262.387
-537.236
-798.761
-1042.59
-1265.58
-1464.72
-1636.96
-1781.29
-1893.41
-1973.67
-2017.92
-2025.9
-1995.4
-1932.38
-1841.17
-1735.72
-1636.28
-1541.8
-1440.18
-1331.13
-1216.73
-1097.15
-972.515
-842.92
-707.905
-566.574
-414.331
-246.656
-33.1143
227.672
1766.21
1806.54
1815.03
1783.33
1702.23
1571.03
1396.72
1193.87
980.208
770.464
578.344
412.343
271.844
154.668
58.4304
-23.3437
-93.8655
-157.185
-216.215
-274.486
-332.518
-391.813
-451.135
-506.653
-546.408
-564.545
-568.469
-561.641
-544.238
-516.067
-477.851
-430.421
-374.354
-309.497
-235.318
-148.517
-44.1756
102.028
312.438
1599.26
1516.88
1401.72
1252.32
1071.82
859.457
621.033
364.72
97.1975
-173.904
-440.74
-697.704
-939.831
-1163.03
-1363.82
-1539.32
-1687.22
-1804.56
-1889.93
-1940.18
-1955.12
-1933.83
-1880.53
-1800.1
-1704.04
-1609.07
-1516.9
-1418.47
-1312.66
-1201.21
-1084.36
-962.129
-834.578
-701.259
-561.273
-410.084
-243.266
-30.9665
224.056
1656.23
1689.83
1698.37
1675
1611.7
1505.99
1360.75
1185.95
995.071
801.143
616.208
449.773
305.431
182.973
80.7884
-5.13769
-78.7072
-143.695
-203.39
-261.043
-318.023
-375.445
-432.415
-485.536
-525.448
-546.152
-552.305
-547.307
-531.596
-505.08
-468.422
-422.422
-367.628
-303.89
-230.633
-144.573
-40.8493
104.33
308.043
1489.68
1419.96
1322.53
1196.34
1044.14
863.514
658.809
435.779
199.031
-45.2395
-290.572
-531.73
-763.633
-981.848
-1182.25
-1361.35
-1515.95
-1642.93
-1739.82
-1803.94
-1834.64
-1830.9
-1795.24
-1732.18
-1651.17
-1566.32
-1481.22
-1389.25
-1288.91
-1181.92
-1068.81
-949.694
-824.719
-693.512
-555.209
-405.38
-239.744
-29.3402
219.648
1538.38
1567.65
1576.67
1559.46
1509.36
1424
1304.94
1159.76
998.494
830.8
666.443
513.545
376.034
254.998
150.018
58.9525
-20.9765
-92.5239
-158.341
-221.004
-281.94
-341.955
-400.346
-454.138
-495.885
-519.982
-529.395
-527.374
-514.479
-490.61
-456.347
-412.457
-359.474
-297.265
-225.248
-140.19
-37.3657
106.247
302.953
1381.23
1320.68
1235.88
1125.98
993.793
835.834
655.42
456.995
243.596
20.3942
-207.225
-434.502
-656.374
-868.203
-1065.64
-1244.72
-1401.77
-1533.43
-1636.72
-1709.23
-1749.14
-1755.83
-1730.96
-1679.05
-1608.35
-1530.64
-1450.34
-1362.84
-1266.56
-1163.09
-1053.14
-936.823
-814.289
-685.173
-548.616
-400.267
-236.032
-27.9504
214.442
1423.87
1450.04
1459.61
1447.25
1407.41
1337.64
1238.49
1115.78
977.254
830.119
682.293
540.769
409.508
290.54
184.557
90.8189
7.60757
-67.0809
-135.426
-199.614
-261.163
-320.858
-378.208
-430.71
-472.468
-498.416
-510.033
-510.114
-499.247
-477.356
-444.957
-402.781
-351.338
-290.495
-219.646
-135.593
-33.7791
107.964
297.353
1277.58
1224.06
1149.2
1052.44
936.749
798.095
639.226
463.681
273.314
72.2839
-135.122
-344.969
-552.659
-753.784
-944.111
-1119.53
-1276.04
-1410.1
-1518.35
-1598.08
-1647.32
-1665.37
-1653.23
-1614.61
-1556.28
-1487.88
-1414.24
-1332.57
-1241.47
-1142.38
-1036.18
-923.065
-803.235
-676.381
-541.693
-394.953
-232.305
-26.9789
208.402
1315.68
1339.7
1349.81
1341.19
1309.3
1251.7
1168.43
1064.22
945.35
817.264
686.355
558.508
437.161
324.501
221.717
128.793
44.803
-31.5685
-101.933
-167.978
-230.987
-291.58
-349.3
-401.944
-444.716
-473.09
-487.503
-490.214
-481.862
-462.398
-432.265
-392.142
-342.512
-283.243
-213.725
-130.817
-30.1782
109.351
291.214
1180.65
1132.57
1065.52
979.112
876.475
753.308
611.961
455.405
284.598
102.948
-86.1842
-279.658
-473.402
-663.417
-845.689
-1016.08
-1170.52
-1305.26
-1416.7
-1501.95
-1558.69
-1585.95
-1584.03
-1556.07
-1507.86
-1447.41
-1379.58
-1303.05
-1216.64
-1121.62
-1018.97
-908.963
-791.815
-667.254
-534.5
-389.474
-228.589
-26.4295
201.64
1215.25
1237.65
1248.24
1242.61
1216.99
1169.05
1098.46
1009.2
906.508
794.549
678.514
563.339
451.837
346.06
247.428
156.388
72.6463
-4.43974
-75.9253
-143.004
-206.68
-267.422
-324.829
-377.016
-420.098
-450.092
-466.663
-471.518
-465.275
-447.916
-419.808
-381.567
-333.64
-275.892
-207.694
-125.979
-26.629
110.368
284.63
1090.78
1047.03
986.297
908.318
816.351
706.032
579.463
439.226
285.716
121.678
-50.1952
-227.492
-406.777
-584.541
-757.104
-920.543
-1070.83
-1204.18
-1316.86
-1405.82
-1468.47
-1503.68
-1511.34
-1493.76
-1455.7
-1403.68
-1342.33
-1271.42
-1190.11
-1099.52
-1000.7
-894.035
-779.767
-657.663
-526.995
-383.839
-224.9
-26.2791
194.294
1122.65
1143.78
1154.77
1151.56
1130.94
1090.74
1030.44
953.445
864.229
766.103
663.339
560.098
458.623
360.678
267.669
180.216
98.4423
22.1553
-49.2423
-116.525
-180.391
-241.136
-298.346
-350.359
-393.918
-425.519
-444.297
-451.43
-447.476
-432.407
-406.504
-370.313
-324.239
-268.143
-201.393
-121.006
-23.1178
111.019
277.682
1007.88
967.654
912.088
841.059
757.883
658.259
544.105
417.747
279.17
130.665
-25.6368
-187.94
-353.369
-518.923
-681.357
-837.024
-982.074
-1112.77
-1225.39
-1316.75
-1384.08
-1425.9
-1441.77
-1433.2
-1404.15
-1359.95
-1304.81
-1239.33
-1162.99
-1076.79
-981.822
-878.548
-767.236
-647.687
-519.219
-378.084
-221.276
-26.541
186.429
1037.51
1057.62
1068.94
1067.7
1051.13
1017.23
965.362
898.475
820.499
734.128
642.939
550.47
458.474
368.393
281.492
198.406
119.484
44.8578
-25.719
-92.6295
-156.261
-216.711
-273.535
-325.234
-369.047
-401.888
-422.556
-431.732
-429.864
-416.916
-393.101
-358.888
-314.639
-260.203
-194.942
-115.972
-19.6973
111.279
270.386
931.539
894.228
842.986
777.792
701.986
611.378
507.774
393.325
267.75
132.992
-9.25913
-157.682
-309.884
-463.407
-615.422
-762.603
-901.415
-1028.26
-1139.48
-1231.82
-1302.43
-1349.55
-1372.49
-1372.07
-1351.42
-1314.81
-1265.98
-1206.02
-1134.77
-1053.1
-962.122
-862.371
-754.145
-637.282
-511.153
-372.208
-217.741
-27.2363
178.077
959.309
978.555
990.14
990.508
977.249
948.528
903.651
845.187
776.645
700.29
619.166
536.341
453.171
370.784
290.261
212.167
136.926
64.8442
-4.05934
-69.8786
-132.729
-192.527
-248.765
-300.07
-344.029
-377.899
-400.274
-411.406
-411.609
-400.807
-379.136
-346.976
-304.634
-251.946
-188.275
-110.85
-16.3623
111.156
262.758
861.266
826.431
778.864
718.623
649.072
566.154
471.588
367.387
253.13
130.487
0.809017
-134.966
-274.86
-416.854
-558.548
-697.016
-829.023
-951.2
-1060.01
-1152.25
-1225
-1276.27
-1305.15
-1311.81
-1298.68
-1269.16
-1226.46
-1171.94
-1105.73
-1028.62
-941.689
-845.546
-740.511
-626.456
-502.804
-366.22
-214.313
-28.3669
169.253
887.455
905.949
917.725
919.43
908.908
884.491
845.454
794.067
733.493
665.688
593.3
519.022
443.903
368.803
294.622
221.791
150.704
81.7591
15.135
-49.0446
-110.677
-169.505
-224.964
-275.755
-319.708
-354.364
-378.206
-391.124
-393.273
-384.518
-364.927
-334.793
-294.363
-243.458
-181.441
-105.671
-13.1368
110.653
254.827
796.561
763.864
719.469
663.503
599.322
523.025
436.275
340.975
236.61
124.66
6.21868
-118.068
-246.573
-377.674
-509.349
-639.045
-763.889
-880.771
-986.349
-1077.5
-1151.3
-1205.62
-1239.32
-1252.12
-1245.75
-1222.86
-1186.13
-1136.99
-1075.81
-1003.3
-920.499
-828.06
-726.326
-615.203
-494.172
-360.128
-211.006
-29.9306
159.989
821.386
839.215
851.115
853.918
845.68
824.87
790.756
745.359
691.562
631.095
566.29
499.548
431.702
363.398
295.351
227.853
161.225
95.866
32.0397
-29.9925
-89.959
-147.47
-201.907
-252.016
-295.796
-331.005
-356.08
-370.619
-374.614
-367.85
-350.324
-322.232
-283.758
-234.7
-174.424
-100.436
-10.0282
109.783
246.618
736.951
706.124
664.498
612.262
552.748
482.218
402.28
314.756
219.083
116.578
8.16558
-105.742
-223.796
-344.705
-466.803
-587.892
-705.443
-816.634
-918.357
-1007.63
-1081.58
-1137.97
-1175.47
-1193.48
-1193.06
-1176.25
-1145.21
-1101.33
-1045.1
-977.197
-898.58
-809.923
-711.594
-603.525
-485.26
-353.941
-207.826
-31.9113
150.317
760.567
777.799
789.758
793.465
787.144
769.385
739.451
699.16
651.167
597.021
538.81
478.708
417.392
355.336
293.097
230.833
168.778
107.288
46.641
-12.8395
-70.77
-126.662
-179.845
-229.093
-272.527
-308.068
-334.144
-350.124
-355.836
-350.971
-335.453
-309.384
-272.878
-225.708
-167.251
-95.1622
-7.05027
108.555
238.164
681.988
652.819
613.641
564.695
509.281
443.82
369.865
289.182
201.176
107.049
7.59325
-96.9475
-205.458
-316.908
-429.956
-542.731
-653.005
-758.274
-855.681
-942.419
-1015.71
-1073.29
-1113.65
-1135.97
-1140.73
-1129.45
-1103.8
-1065.02
-1013.66
-950.346
-875.949
-791.144
-696.316
-591.425
-476.075
-347.665
-204.787
-34.2892
140.274
704.513
721.19
733.17
737.615
732.907
717.741
691.388
655.482
612.486
563.812
511.354
457.104
401.622
345.26
288.447
231.229
173.738
116.262
59.0499
2.43761
-53.1361
-107.122
-158.814
-207.01
-249.912
-285.561
-312.402
-329.631
-336.921
-333.863
-320.297
-296.235
-261.715
-216.483
-159.924
-89.8604
-4.21192
106.989
229.497
631.263
603.579
566.59
520.578
468.801
407.827
339.172
264.544
183.343
96.6812
5.24351
-90.8494
-190.671
-293.413
-397.98
-502.797
-605.941
-705.198
-797.99
-881.706
-953.684
-1011.67
-1054.03
-1079.82
-1089.02
-1082.69
-1062.07
-1028.19
-981.576
-922.798
-852.637
-771.742
-680.504
-578.909
-466.622
-341.31
-201.89
-37.0452
129.908
652.799
668.946
680.9
685.955
682.609
669.659
646.392
614.278
575.612
531.698
484.277
435.187
384.91
333.709
281.919
229.486
176.453
123.019
69.3828
15.8593
-37.1034
-88.9312
-138.909
-185.862
-228.047
-263.59
-290.968
-309.25
-317.964
-316.605
-304.92
-282.831
-250.303
-207.048
-152.464
-84.5447
-1.52323
105.102
220.653
584.397
558.064
523.052
479.685
431.16
374.191
310.267
241.034
165.901
85.9118
1.66159
-86.8137
-178.731
-273.463
-370.131
-467.412
-563.659
-656.934
-744.93
-825.243
-895.37
-953.101
-996.711
-1025.18
-1038.1
-1036.14
-1020.17
-990.934
-948.922
-894.611
-828.68
-751.739
-664.171
-565.986
-456.909
-334.883
-199.142
-40.1486
119.267
605.033
620.676
632.562
638.114
635.922
624.878
604.285
575.469
540.577
500.828
457.832
413.302
367.669
321.132
273.951
226.001
177.246
127.8
77.794
27.4998
-22.6624
-72.1279
-120.191
-165.712
-206.989
-242.217
-269.906
-289.04
-299.015
-299.237
-289.353
-269.199
-238.661
-197.42
-144.884
-79.2283
1.00991
102.919
211.67
541.068
515.971
482.758
441.794
396.194
342.831
283.152
218.756
149.062
75.0533
-2.7327
-84.3188
-169.051
-256.437
-345.783
-435.982
-525.628
-613.04
-696.161
-772.81
-840.653
-897.565
-941.768
-972.195
-988.157
-990.004
-978.248
-953.393
-915.799
-865.854
-804.127
-731.164
-647.336
-552.668
-446.947
-328.391
-196.541
-43.5679
108.398
560.866
576.029
587.812
593.763
592.553
583.153
564.89
538.958
507.372
471.284
432.191
391.704
350.217
307.885
264.917
221.132
176.431
130.854
84.4602
37.4592
-9.77657
-56.719
-102.698
-146.613
-186.804
-221.516
-249.299
-269.082
-280.147
-281.822
-273.648
-255.376
-226.82
-187.621
-137.203
-73.9249
3.38367
100.467
202.585
500.976
477.018
445.461
406.686
363.745
313.646
257.805
197.763
132.97
64.3515
-7.6006
-82.9604
-161.161
-241.83
-324.41
-407.98
-491.357
-573.076
-651.33
-724.147
-789.381
-845.002
-889.234
-920.963
-939.35
-944.445
-936.474
-915.69
-882.308
-836.603
-779.029
-710.055
-630.023
-538.972
-436.747
-321.839
-194.086
-47.2657
97.3618
519.987
534.684
546.34
552.61
552.233
544.259
528.033
504.639
475.968
443.114
407.48
370.588
332.804
294.26
255.125
215.187
174.29
132.416
89.5557
45.8493
1.60601
-42.7001
-86.4519
-128.605
-167.54
-201.547
-229.217
-249.448
-261.428
-264.419
-257.854
-241.405
-214.811
-177.677
-129.443
-68.6472
5.59487
97.7765
193.445
463.849
440.951
410.922
374.165
333.651
286.529
234.171
178.079
117.718
53.9731
-12.7036
-82.4164
-154.676
-229.194
-305.535
-382.929
-460.385
-536.638
-610.102
-679.009
-741.394
-795.344
-839.127
-871.581
-891.813
-899.624
-895
-877.961
-848.558
-806.943
-753.448
-688.454
-612.261
-524.919
-426.323
-315.234
-191.769
-51.2009
86.2151
482.118
496.362
507.871
514.389
514.719
507.988
493.554
472.403
446.314
416.331
383.776
350.089
315.623
280.492
244.84
208.434
171.082
132.712
93.2618
52.7991
11.563
-30.0427
-71.4645
-111.72
-149.241
-182.367
-209.728
-230.211
-242.93
-247.092
-242.026
-227.33
-202.67
-167.617
-121.622
-63.409
7.64535
94.8785
184.292
429.447
407.546
378.935
344.041
305.761
261.361
212.187
159.689
103.356
44.0347
-17.8501
-82.4313
-149.273
-218.16
-288.757
-360.42
-432.315
-503.359
-572.159
-637.138
-696.516
-748.503
-791.436
-824.116
-845.668
-855.691
-853.977
-840.342
-814.665
-776.968
-727.455
-666.411
-594.087
-510.53
-415.688
-308.58
-189.581
-55.3297
75.017
447.012
460.818
472.159
478.865
479.794
474.148
461.298
442.14
418.352
390.93
361.126
330.309
298.822
266.77
234.277
201.103
167.034
131.957
95.7589
58.4438
20.1818
-18.696
-57.7142
-95.9646
-131.94
-164.024
-190.894
-211.44
-224.723
-229.904
-226.223
-213.199
-190.437
-157.471
-113.767
-58.2221
9.53763
91.8078
175.171
397.554
376.589
349.304
316.145
279.925
238.033
191.78
142.569
89.9107
34.6207
-22.9069
-82.813
-144.717
-208.451
-273.759
-340.111
-406.799
-472.899
-537.192
-598.284
-654.562
-704.367
-746.119
-778.608
-801.01
-812.776
-813.55
-802.969
-780.747
-746.773
-701.125
-643.984
-575.539
-495.834
-404.86
-301.88
-187.504
-59.6029
63.8315
414.45
427.826
438.981
445.824
447.264
442.569
431.124
413.745
392.014
366.887
339.552
311.314
282.508
253.233
223.607
193.387
162.345
130.341
97.2179
62.9251
27.5681
-8.5972
-45.173
-81.3404
-115.657
-146.559
-172.771
-193.201
-206.874
-212.923
-210.503
-199.066
-178.156
-147.273
-105.899
-53.0993
11.2776
88.6012
166.125
367.974
347.893
321.851
290.313
256.007
216.432
172.873
126.678
77.3904
25.7845
-27.7632
-83.4056
-140.795
-199.81
-260.258
-321.689
-383.519
-444.951
-504.926
-562.211
-615.351
-662.82
-703.128
-735.076
-757.911
-770.994
-773.851
-765.973
-746.924
-716.464
-674.543
-621.236
-556.665
-480.862
-393.856
-295.137
-185.523
-63.9684
52.7246
384.231
397.186
408.137
415.075
416.951
413.092
402.899
387.114
367.232
344.172
319.063
293.149
266.761
240.001
212.978
185.452
157.192
128.036
97.7963
66.3797
33.83
0.330548
-33.8019
-67.8351
-100.402
-129.999
-155.405
-175.554
-189.452
-196.214
-194.928
-184.984
-165.87
-137.059
-98.0449
-48.0513
12.8723
85.294
157.203
340.528
321.286
296.416
266.4
233.872
196.451
155.383
111.971
65.7784
17.5551
-32.3491
-84.086
-137.343
-192.031
-248.008
-304.893
-362.197
-419.242
-475.104
-528.694
-578.702
-623.731
-662.397
-693.527
-716.431
-730.441
-735
-729.48
-713.317
-686.146
-647.797
-598.237
-537.516
-465.648
-382.696
-288.352
-183.616
-68.3782
41.7573
356.174
368.72
379.451
386.446
388.694
385.571
376.499
362.147
343.934
322.745
299.65
275.84
251.642
227.159
202.497
177.427
151.717
125.191
97.6406
68.9393
39.0773
8.16922
-23.5451
-55.4206
-86.1735
-114.367
-138.834
-158.552
-172.518
-179.841
-179.561
-171.011
-153.629
-126.866
-90.2309
-43.0895
14.3329
81.9237
148.446
315.057
296.613
272.851
244.267
213.402
177.989
139.234
98.3942
55.059
9.94379
-36.6143
-84.7702
-134.236
-184.949
-236.808
-289.493
-342.593
-395.522
-447.481
-497.508
-544.431
-586.969
-623.846
-653.936
-676.598
-691.197
-697.107
-693.614
-680.049
-655.93
-620.979
-575.059
-518.148
-450.234
-371.399
-281.525
-181.758
-72.7761
30.9955
330.115
342.261
352.764
359.787
362.347
359.874
351.805
338.75
322.051
302.56
281.297
259.397
237.187
214.771
192.256
169.424
146.046
121.941
96.8885
70.7323
43.4207
15.0087
-14.3369
-44.0585
-72.9579
-99.6721
-123.093
-142.242
-156.131
-163.868
-164.464
-157.203
-141.484
-116.735
-82.4841
-38.2238
15.6707
78.5271
139.899
291.412
273.73
251.02
223.786
194.482
160.946
124.346
85.8946
45.202
2.95615
-40.5207
-85.3824
-131.366
-178.429
-226.494
-275.297
-324.492
-373.572
-421.846
-468.458
-512.369
-552.406
-587.392
-616.268
-638.436
-653.325
-660.266
-658.482
-647.228
-625.924
-594.184
-551.785
-498.622
-434.656
-359.989
-274.653
-179.923
-77.1086
20.5016
305.908
317.66
327.928
334.95
337.774
335.875
328.712
316.834
301.513
283.57
263.976
243.818
223.418
202.885
182.324
161.529
140.281
118.399
95.6547
71.8718
46.9625
20.9326
-6.11497
-33.7059
-60.7367
-85.9146
-108.201
-126.664
-140.343
-148.352
-149.698
-143.619
-129.484
-106.708
-74.8307
-33.464
16.8989
75.1398
131.601
269.462
252.508
230.799
204.841
177.006
145.229
110.643
74.414
36.1738
-3.4163
-44.0507
-85.8764
-128.653
-172.354
-216.923
-262.138
-307.707
-353.197
-397.999
-441.362
-482.353
-519.91
-552.949
-580.483
-601.953
-616.873
-624.555
-624.184
-614.963
-596.231
-567.514
-528.493
-479.001
-418.964
-348.484
-267.739
-178.08
-81.3217
10.3362
283.416
294.783
304.808
311.805
314.851
313.462
307.117
296.313
282.251
265.725
247.66
229.095
210.347
191.529
172.748
153.811
134.508
114.663
94.0442
72.4642
49.8055
26.0336
1.19462
-24.3157
-49.4799
-73.0888
-94.1718
-111.851
-125.202
-133.352
-135.322
-130.317
-117.681
-96.8242
-67.3
-28.818
18.0309
71.7961
123.592
249.086
232.828
212.072
187.325
160.876
130.751
98.051
63.8968
27.9378
-9.18795
-47.1927
-86.2154
-126.036
-166.636
-207.981
-249.879
-292.086
-334.225
-375.766
-416.047
-454.228
-489.35
-520.418
-546.518
-567.133
-581.871
-590.042
-590.815
-583.358
-566.957
-541.06
-505.272
-459.353
-403.198
-336.916
-260.778
-176.202
-85.3697
0.556671
262.514
273.505
283.284
290.237
293.467
292.533
286.928
277.105
264.198
248.973
232.313
215.209
197.975
180.725
163.567
146.324
128.798
110.815
92.15
72.6035
52.0426
30.3975
7.66436
-15.8268
-39.1505
-61.1792
-81.0113
-97.8264
-110.746
-118.919
-121.393
-117.352
-106.126
-87.125
-59.9184
-24.2949
19.082
68.5255
115.903
230.169
214.581
194.733
171.137
145.996
117.43
86.5013
54.2856
20.4547
-14.3809
-49.9467
-86.3783
-123.465
-161.204
-199.569
-238.399
-277.487
-316.506
-354.99
-392.356
-427.851
-460.602
-489.707
-514.315
-533.96
-548.337
-556.775
-558.447
-552.508
-538.203
-514.921
-482.201
-439.747
-387.412
-325.303
-253.771
-174.262
-89.1992
-8.78642
243.09
253.715
263.244
270.135
273.519
272.989
268.058
259.134
247.29
233.264
217.898
202.138
186.294
170.481
154.808
139.111
123.203
106.922
90.0454
72.373
53.7571
34.1028
13.3676
-8.18394
-29.7099
-50.1646
-68.7173
-84.6075
-97.0079
-105.097
-107.961
-104.778
-94.8701
-77.6527
-52.7108
-19.9028
20.0645
65.3608
108.567
212.609
197.664
178.684
156.184
132.284
105.187
75.925
45.5271
13.6846
-19.0182
-52.3167
-86.3448
-120.904
-155.994
-191.606
-227.598
-263.794
-299.91
-335.535
-370.15
-403.086
-433.55
-460.716
-483.811
-502.405
-516.277
-524.796
-527.148
-522.495
-510.061
-489.189
-459.369
-420.249
-371.655
-313.674
-246.716
-172.222
-92.7683
-17.6431
225.041
235.306
244.584
251.4
254.909
254.741
250.423
242.325
231.463
218.546
204.377
189.857
175.29
160.796
146.481
132.196
117.768
103.039
87.7989
71.847
55.0285
37.2283
18.3738
-1.32678
-21.1121
-40.018
-57.2801
-72.2024
-84.0123
-91.9255
-95.0752
-92.6453
-83.9605
-68.4454
-45.7056
-15.6486
20.9957
62.325
101.607
196.313
181.984
163.836
142.381
119.656
93.9499
66.2585
37.5683
7.588
-23.1223
-54.3122
-86.1077
-118.323
-150.964
-184.027
-217.391
-250.904
-284.318
-317.273
-349.306
-379.814
-408.082
-433.357
-454.933
-472.425
-485.685
-494.128
-496.97
-493.392
-482.612
-463.95
-436.854
-400.931
-355.973
-302.055
-239.611
-170.063
-96.0316
-25.9687
208.27
218.183
227.209
233.939
237.55
237.704
233.948
226.612
216.658
204.769
191.708
178.335
164.947
151.666
138.595
125.601
112.521
99.2105
85.464
71.0881
55.9239
39.8437
22.7496
4.80258
-13.3107
-30.7051
-46.6834
-60.6125
-71.7771
-79.4365
-82.7763
-80.999
-73.4415
-59.5421
-38.9258
-11.5393
21.885
59.4418
95.0429
181.191
167.457
150.104
129.646
108.038
83.6489
57.4401
30.3563
2.12277
-26.7256
-55.9478
-85.6668
-115.707
-146.075
-176.777
-207.705
-238.731
-269.635
-300.097
-329.705
-357.921
-384.092
-407.537
-427.612
-443.977
-456.541
-464.783
-467.954
-465.261
-455.936
-439.287
-414.736
-381.859
-340.421
-290.472
-232.46
-167.756
-98.9549
-33.7285
192.689
202.26
211.034
217.668
221.358
221.801
218.559
211.928
202.817
191.882
179.851
167.541
155.243
143.078
131.149
119.335
107.488
95.4681
83.0847
70.15
56.5043
42.0122
26.5574
10.2613
-6.25746
-22.1908
-36.9076
-49.8329
-60.3124
-67.6543
-71.1
-69.8808
-63.3534
-50.9775
-32.395
-7.58197
22.7447
56.7292
88.8893
167.164
154.001
137.411
117.906
97.3594
74.2197
49.4125
23.8416
-2.75225
-29.8559
-57.2419
-85.0252
-113.042
-141.3
-169.813
-198.483
-227.2
-255.771
-283.909
-311.249
-337.304
-361.485
-383.17
-401.776
-417.01
-428.825
-436.765
-440.128
-438.152
-430.097
-415.273
-393.089
-363.099
-325.044
-278.953
-225.265
-165.279
-101.506
-40.8934
178.218
187.454
195.977
202.505
206.258
206.959
204.188
198.21
189.882
179.837
168.764
157.442
146.153
135.017
124.138
113.405
102.681
91.8394
80.6975
69.077
56.8214
43.7906
29.8567
15.1071
0.096719
-14.4373
-27.9261
-39.8529
-49.6234
-56.5973
-60.0742
-59.3252
-53.733
-42.7823
-26.1348
-3.78349
23.5845
54.2023
83.156
154.156
141.542
125.685
107.091
87.5552
65.6015
42.121
17.978
-7.07304
-32.5403
-58.2096
-84.1879
-110.321
-136.621
-163.1
-189.676
-216.25
-242.652
-268.628
-293.846
-317.872
-340.17
-360.175
-377.361
-391.474
-402.507
-410.071
-413.509
-412.106
-405.152
-391.974
-371.98
-344.711
-309.892
-267.526
-218.028
-162.615
-103.658
-47.4374
164.78
173.69
181.963
188.378
192.178
193.11
190.772
185.4
177.803
168.586
158.406
148.002
137.649
127.464
117.55
107.808
98.1106
88.3408
78.329
67.9058
56.9193
45.2287
32.6987
19.39
5.79915
-7.40451
-19.7101
-30.6566
-39.7072
-46.2753
-49.7211
-49.3615
-44.6123
-34.9856
-20.1642
-0.150381
24.4096
51.8698
77.8459
142.096
130.013
114.859
97.1364
78.5639
57.7366
35.5135
12.7183
-10.8785
-34.8098
-58.8708
-83.1631
-107.541
-132.019
-156.611
-181.242
-205.827
-230.216
-254.178
-277.418
-299.541
-320.064
-338.472
-354.293
-367.312
-377.551
-384.685
-388.107
-387.151
-381.147
-369.446
-351.469
-326.752
-295.008
-256.217
-210.758
-159.748
-105.39
-53.3463
152.305
160.897
168.922
175.22
179.051
180.191
178.252
173.442
166.526
158.082
148.737
139.189
129.703
120.398
111.373
102.538
93.778
84.9852
76.0011
66.6665
56.8364
46.3709
35.1318
23.1584
10.8946
-1.0528
-12.228
-22.2218
-30.5537
-36.6916
-40.0556
-40.0123
-36.0166
-27.6112
-14.5002
3.30944
25.2251
49.7383
72.9563
130.922
119.349
104.87
87.9814
70.3276
50.572
29.5407
8.02046
-14.2069
-36.694
-59.2476
-81.9637
-104.705
-127.486
-150.322
-173.148
-195.886
-218.404
-240.494
-261.891
-282.236
-301.091
-317.992
-332.512
-344.471
-353.918
-360.588
-363.923
-363.306
-358.116
-347.738
-331.61
-309.274
-280.437
-245.053
-203.463
-156.673
-106.692
-58.6099
140.727
149.009
156.79
162.965
166.816
168.141
166.569
162.283
156.002
148.283
139.717
130.965
122.287
113.796
105.589
97.5858
89.6824
81.7787
73.7283
65.3821
56.6025
47.2544
37.1991
26.458
15.4281
4.6582
-5.44618
-14.5241
-22.1497
-27.8434
-31.0842
-31.2928
-27.9655
-20.6787
-9.15751
6.59167
26.0319
47.8086
68.481
120.571
109.49
95.6607
79.5701
62.7928
44.0571
24.1577
3.8431
-17.0927
-38.221
-59.3601
-80.6014
-101.815
-123.015
-144.219
-165.366
-186.39
-207.171
-227.521
-247.201
-265.888
-283.182
-298.665
-311.951
-322.895
-331.566
-337.752
-340.945
-340.581
-336.085
-326.886
-312.446
-292.321
-266.215
-234.062
-196.153
-153.385
-107.554
-63.2265
129.987
137.967
145.507
151.555
155.415
156.905
155.671
151.873
146.186
139.143
131.306
123.299
115.37
107.632
100.179
92.9392
85.8179
78.7229
71.5201
64.0703
56.2441
47.912
38.9378
29.3296
19.4416
9.76841
0.670489
-7.53629
-14.4763
-19.7214
-22.8081
-23.2119
-20.4723
-14.2021
-4.14756
9.68893
26.8306
46.0773
64.4081
110.988
100.382
87.1758
71.8497
55.9091
38.1443
19.319
0.145514
-19.5698
-39.4191
-59.2298
-79.0899
-98.8753
-118.602
-138.286
-157.875
-177.307
-196.474
-215.209
-233.295
-250.437
-266.272
-280.426
-292.551
-302.53
-310.45
-316.145
-319.156
-318.973
-315.071
-306.92
-294.015
-275.932
-252.378
-223.267
-188.842
-149.884
-107.976
-67.2001
120.027
127.713
135.015
140.935
144.793
146.429
145.507
142.163
137.032
130.622
123.467
116.154
108.922
101.882
95.1238
88.5839
82.1762
75.8172
69.3831
62.7449
55.7821
48.3715
40.3816
31.8104
22.9735
14.3166
6.15765
-1.22732
-7.50988
-12.3107
-15.2213
-15.7711
-13.5449
-8.19169
0.520762
12.5959
27.6172
44.539
60.7219
102.121
91.9726
79.3647
64.7714
49.6295
32.7893
14.984
-3.10828
-21.6701
-40.3145
-58.8783
-77.4439
-95.8947
-114.246
-132.516
-150.654
-168.608
-186.279
-203.515
-220.119
-235.826
-250.305
-263.218
-274.254
-283.322
-290.524
-295.732
-298.536
-298.476
-295.078
-287.857
-276.344
-260.139
-238.955
-212.692
-181.544
-146.177
-107.965
-70.5408
110.795
118.196
125.262
131.05
134.898
136.666
136.03
133.108
128.496
122.68
116.162
109.497
102.914
96.5201
90.4022
84.5041
78.7476
73.0574
67.3194
61.4153
55.2328
48.6561
41.5596
33.9338
26.0604
18.3395
11.0515
4.43494
-1.2238
-5.59197
-8.31202
-8.96637
-7.18478
-2.65243
4.84179
15.3071
28.3867
43.1821
57.4024
93.9195
84.2124
72.18
58.2889
43.9095
27.9507
11.1145
-5.95307
-23.4257
-40.9345
-58.326
-75.6776
-92.8799
-109.949
-126.901
-143.692
-160.272
-176.555
-192.401
-207.631
-222.006
-235.225
-246.983
-257.005
-265.219
-271.741
-276.474
-279.057
-279.075
-276.105
-269.707
-259.452
-244.966
-225.973
-202.362
-174.276
-142.276
-107.532
-73.2662
102.241
109.363
116.2
121.854
125.684
127.567
127.196
124.667
120.54
115.279
109.356
103.295
97.3156
91.5202
85.9923
80.6825
75.5202
70.4369
65.3291
60.0876
54.6089
48.7855
42.4976
35.7311
28.7368
21.8733
15.3873
9.484
4.41124
0.458639
-2.06307
-2.78767
-1.38797
2.41537
8.81244
17.8182
29.1323
41.9942
54.4276
86.3393
77.057
65.5774
52.3592
38.7082
23.5889
7.67433
-8.42243
-24.865
-41.3033
-57.5918
-73.8054
-89.8402
-105.712
-121.437
-136.974
-152.281
-167.275
-181.833
-195.792
-208.933
-220.985
-231.672
-240.751
-248.17
-254.052
-258.331
-260.685
-260.748
-258.143
-252.472
-243.351
-230.431
-213.453
-192.294
-167.056
-138.196
-106.693
-75.3974
94.3187
101.172
107.782
113.301
117.106
119.091
118.961
116.798
113.124
108.381
103.016
97.5185
92.0989
86.8572
81.8725
77.1014
72.4806
67.9481
63.4097
58.7658
53.9211
48.7758
43.2179
37.2295
31.0342
24.9524
19.2004
13.9544
9.42706
5.86864
3.5472
2.78076
3.85507
7.01598
12.4327
20.1257
29.8462
40.9599
51.772
79.3368
70.4639
59.5157
46.9419
33.9864
19.6673
4.62874
-10.5481
-26.0164
-41.445
-56.697
-71.8428
-86.7848
-101.539
-116.12
-130.492
-144.616
-158.417
-171.783
-184.564
-196.565
-207.537
-217.236
-225.442
-232.124
-237.412
-241.26
-243.385
-243.468
-241.172
-236.146
-228.043
-216.545
-201.409
-182.508
-159.902
-133.955
-105.472
-76.9605
86.986
93.5764
99.9646
105.348
109.122
111.194
111.286
109.463
106.212
101.953
97.1077
92.1354
87.2362
82.5064
78.0213
73.7431
69.6153
65.5821
61.5576
57.4513
53.1763
48.6404
43.7395
38.4536
32.9813
27.609
22.5253
17.8808
13.8571
10.6685
8.54457
7.75896
8.55874
11.1578
15.7057
22.2268
30.5193
40.0611
49.4091
72.872
64.3935
53.9557
41.9993
29.7084
16.1515
1.94573
-12.3589
-26.9067
-41.3828
-55.6596
-69.8034
-83.7229
-97.4327
-110.95
-124.239
-137.264
-149.96
-162.223
-173.917
-184.864
-194.841
-203.628
-211.031
-217.035
-221.771
-225.215
-227.119
-227.203
-225.172
-220.716
-213.524
-203.313
-189.855
-173.019
-152.834
-129.576
-103.894
-77.9876
80.2019
86.5374
92.7078
97.9547
101.691
103.839
104.135
102.626
99.7684
95.9612
91.601
87.117
82.7003
78.4432
74.4173
70.5899
66.9106
63.3292
59.7678
56.1447
52.3806
48.3911
44.0798
39.4258
34.6055
29.8741
25.3957
21.2982
17.7357
14.8907
12.9581
12.1711
12.7414
14.8531
18.6368
24.1203
31.1422
39.2796
47.3112
66.9075
58.8087
48.8614
37.4962
25.8402
13.0096
-0.405241
-13.883
-27.5596
-41.1376
-54.4969
-67.7009
-80.6632
-93.3988
-105.924
-118.206
-130.214
-141.886
-153.129
-163.82
-173.797
-182.858
-190.806
-197.473
-202.854
-207.083
-210.152
-211.846
-211.918
-210.114
-206.161
-199.787
-190.734
-178.797
-163.842
-145.87
-125.083
-101.99
-78.512
73.9287
80.0166
85.9736
91.0836
94.7769
96.9899
97.4702
96.2522
93.7611
90.3749
86.4661
82.4359
78.4659
74.6447
71.0404
67.6246
64.3526
61.1794
58.035
54.8453
51.5385
48.0375
44.2541
40.1668
35.9323
31.7772
27.8442
24.2411
21.0982
18.5694
16.8193
16.0446
16.425
18.1172
21.2345
25.8059
31.7058
38.5958
45.4494
61.408
53.6751
44.1987
33.3997
22.3497
10.2111
-2.45165
-15.1454
-27.9988
-40.73
-53.2266
-65.5484
-77.6155
-89.4416
-101.043
-112.389
-123.454
-134.179
-144.481
-154.247
-163.33
-171.55
-178.731
-184.724
-189.536
-193.301
-196.025
-197.521
-197.576
-195.967
-192.46
-186.814
-178.803
-168.237
-154.987
-139.029
-120.501
-99.7906
-78.571
68.1309
73.9786
79.7266
84.6993
88.3448
90.6115
91.2597
90.3105
88.1591
85.164
81.6749
78.0657
74.5089
71.0891
67.871
64.8304
61.9278
59.1231
56.3532
53.5514
50.6529
47.588
44.2759
40.6953
36.985
33.3461
29.9022
26.7436
23.9797
21.7397
20.1614
19.4093
19.6341
20.9683
23.5088
27.2853
32.2012
37.9903
43.7955
56.3408
48.9601
39.9358
29.6789
19.2073
7.72817
-4.22023
-16.1711
-28.2461
-40.1788
-51.8637
-63.3582
-74.5875
-85.5651
-96.3068
-106.785
-116.975
-126.825
-136.258